# Probe 0 (1 0 0)
# Probe 1 (10 2.5 0)
#             Probe                   0                   1
#              Time
             0.2508      0.100446803534   3.07026712666e-06
             0.4994      0.101383339738  -3.18321580371e-07
             0.7502     0.0888606621571  -3.91542123307e-07
              1.001     0.0474172088977  -2.73789559818e-07
             1.2496    -0.0260610560882  -1.19642346728e-07
             1.5004     -0.125874530325   2.35288427846e-08
              1.749     -0.234576674635    2.9259331086e-07
             1.9998     -0.339666655114    3.4190222829e-07
             2.2506     -0.429456774157   6.88765975524e-07
             2.4992     -0.494907470463    1.0725475393e-06
               2.75     -0.539535472349    1.3303968233e-06
             3.0008     -0.560580639881   1.79483994739e-06
             3.2494     -0.567651403454   2.04647354707e-06
             3.5002     -0.564241902921   2.43356435418e-06
              3.751     -0.556978585602   2.72832205078e-06
             3.9996     -0.547580384814   3.06618004456e-06
             4.2504     -0.537568331624   3.28809720611e-06
              4.499     -0.527160118028   2.75446615553e-06
             4.7498     -0.516315023518   3.56692589028e-06
             5.0006      -0.50544019299   3.49799831295e-06
             5.2492     -0.494726785393   3.31938524486e-06
                5.5     -0.484067694102   2.90410509899e-06
             5.7508     -0.473637049234    2.4900564732e-06
             5.9994      -0.46356461294   1.86989459862e-06
             6.2502     -0.453765604784   7.86453377381e-07
              6.501     -0.444377858282  -3.39046539659e-07
             6.7496      -0.43550524431  -3.24580966478e-06
             7.0004     -0.426964341018   -3.8189765931e-06
              7.249     -0.418924554539  -5.99978380689e-06
             7.4998     -0.411205473907   -1.0245531626e-05
             7.7506     -0.403836633383  -1.27653149269e-05
             7.9992     -0.396916737418  -1.71211055037e-05
               8.25     -0.390283465686  -2.39198706911e-05
             8.5008     -0.383994650804  -2.96872368126e-05
             8.7494     -0.378089979373  -3.72783080909e-05
             9.0002     -0.372451496253  -4.77962261609e-05
              9.251     -0.367130738863  -6.01857120099e-05
             9.4996     -0.362135585807  -7.45870253634e-05
             9.7504     -0.357374774186   -9.2203007202e-05
              9.999     -0.352925763558  -0.000112453046179
            10.2498     -0.348687194208  -0.000136374368862
            10.5006     -0.344704381603  -0.000164503252283
            10.7492     -0.340981298978   -0.00019622257432
                 11     -0.337441756511    -0.0002324214859
            11.2508     -0.334106951812   -0.00027295774769
            11.4994      -0.33098663506  -0.000317315514909
            11.7502     -0.328018178482  -0.000366542886621
             12.001     -0.325221011601    -0.0004194729842
            12.2496     -0.322610177733   -0.00047591108967
            12.5004     -0.320130237977  -0.000536606506845
             12.749     -0.317817152302  -0.000599851009458
            12.9998     -0.315619651675  -0.000666567641209
            13.2506     -0.313562183943   -0.00073622528538
            13.4992     -0.311619677906  -0.000808905183518
              13.75     -0.309783808755  -0.000885432530559
            14.0008     -0.308054623944  -0.000966050888689
            14.2494     -0.306451738164   -0.00104968786168
            14.5002     -0.304912191398   -0.00113688232034
             14.751     -0.303471937158   -0.00122591883836
            14.9996     -0.302126802836    -0.0013161296662
            15.2504     -0.300847468751    -0.0014079180778
             15.499     -0.299652492721   -0.00150096957757
            15.7498     -0.298518259664   -0.00159749959094
            16.0006     -0.297451457859   -0.00169731908243
            16.2492     -0.296454549356   -0.00179911240703
               16.5     -0.295507118047     -0.001905054792
            16.7508     -0.294615501523   -0.00201302841058
            16.9994     -0.293782345942   -0.00212253073593
            17.2502     -0.292992193549    -0.0022353501475
             17.501     -0.292247603518   -0.00235014246855
            17.7496     -0.291553626977   -0.00246662738118
            18.0004     -0.290894590371   -0.00258620543575
             18.249     -0.290280001058   -0.00270776595931
            18.4998     -0.289694881466   -0.00283219574208
            18.7506     -0.289147182306   -0.00296041301813
            18.9992     -0.288632385303   -0.00309096484723
              19.25     -0.288142300568   -0.00322671297411
            19.5008     -0.287684794689   -0.00336828115596
            19.7494     -0.287256148344   -0.00351399635291
            20.0002     -0.286848195784   -0.00366797848521
             20.251     -0.286461710929   -0.00382933545057
            20.4996     -0.286107005231   -0.00399793201553
            20.7504     -0.285764647596   -0.00417828657824
             20.999     -0.285449457275   -0.00436722076753
            21.2498     -0.285151417379   -0.00456906907628
            21.5006     -0.284877313478   -0.00478164847921
            21.7492     -0.284617033998   -0.00500757672646
                 22     -0.284382080993    -0.0052473918035
            22.2508     -0.284164063639   -0.00549971478258
            22.4994     -0.283955609501   -0.00576446354934
            22.7502     -0.283759017901   -0.00604349438507
             23.001     -0.283570121015   -0.00632973727618
            23.2496     -0.283397698002   -0.00662496020059
            23.5004     -0.283234983368   -0.00692556559274
             23.749     -0.283087158563   -0.00724133903449
            23.9998     -0.282946851306   -0.00755404603233
            24.2506      -0.28281828413     -0.007869238035
            24.4992     -0.282702481927   -0.00817506522935
              24.75     -0.282605544733   -0.00848282203768
            25.0008     -0.282514631557   -0.00878124502714
            25.2494     -0.282451418715   -0.00906579043078
            25.5002     -0.282399660018   -0.00934209424137
             25.751      -0.28236201365   -0.00961353046623
            25.9996     -0.282340301684   -0.00985685222202
            26.2504     -0.282319059385    -0.0100931771322
             26.499     -0.282308084742    -0.0103224210583
            26.7498     -0.282312564282     -0.010545810047
            27.0006     -0.282302887598    -0.0107699119342
            27.2492      -0.28231164245    -0.0110056565852
               27.5     -0.282329159004    -0.0112547005938
            27.7508     -0.282356193698     -0.011516078131
            27.9994      -0.28239358661    -0.0118158312844
            28.2502      -0.28246730583    -0.0121505865018
             28.501     -0.282551866822    -0.0125253240001
            28.7496     -0.282685226296    -0.0129559569448
            29.0004      -0.28285763001    -0.0134394642103
             29.249     -0.283075957757    -0.0139908453048
            29.4998     -0.283344755477    -0.0146138228183
            29.7506     -0.283642617773    -0.0153046327877
            29.9992      -0.28397533642    -0.0160507865354
              30.25     -0.284329650187    -0.0168595249265
            30.5008     -0.284731950418    -0.0177522372696
            30.7494     -0.285101136604    -0.0187278073278
            31.0002     -0.285513228664    -0.0196695486317
             31.251     -0.286012200243    -0.0207250212376
            31.4996      -0.28644591103    -0.0216830981475
            31.7504     -0.286983379875    -0.0225752845114
             31.999     -0.287624176803    -0.0235112137449
            32.2498     -0.288291387985    -0.0242237453209
            32.5006     -0.289142398285      -0.02473469258
            32.7492     -0.290098136057    -0.0250271809017
                 33     -0.291219055416    -0.0249181895805
            33.2508      -0.29246643817    -0.0244458464503
            33.4994     -0.293806683065    -0.0234070006312
            33.7502     -0.295233591649    -0.0219281125549
             34.001     -0.296668646163    -0.0199360952154
            34.2496     -0.298202402242    -0.0174552163945
            34.5004     -0.299640627627    -0.0146022989769
             34.749     -0.301227506011    -0.0116101654229
            34.9998     -0.302756967467   -0.00863050387924
            35.2506      -0.30434043888    -0.0058837369494
            35.4992     -0.305950251987   -0.00346362055882
              35.75     -0.307837443917   -0.00169827221353
            36.0008     -0.309745379372  -0.000764951269932
            36.2494     -0.312038988752  -0.000593811693854
            36.5002     -0.314539455436   -0.00116162468352
             36.751     -0.317289354398   -0.00250614823169
            36.9996       -0.3200606967    -0.0045713131868
            37.2504     -0.322779993098    -0.0074666119804
             37.499     -0.325220269065    -0.0109228060797
            37.7498      -0.32733361034     -0.015064088588
            38.0006     -0.329041246886    -0.0198914451052
            38.2492     -0.330464547098    -0.0253748186228
               38.5     -0.331752675291    -0.0314261390326
            38.7508     -0.333174198565    -0.0381993003253
            38.9994     -0.335035177446    -0.0454723514116
            39.2502     -0.337457525709    -0.0530878248724
             39.501     -0.340587318514    -0.0610231654385
            39.7496     -0.344192094468    -0.0680580957456
            40.0004      -0.34796415858     -0.072973722801
             40.249     -0.351259235546    -0.0723156779809
            40.4998     -0.353700943501    -0.0627747197069
            40.7506     -0.354923637965    -0.0428158890688
            40.9992     -0.355071628318     -0.019507042344
              41.25     -0.354573978574   0.000271045726008
            41.5008     -0.354319201828     0.0136752468036
            41.7494     -0.355020033156     0.0222948935113
            42.0002     -0.357539333808     0.0284025411674
             42.251     -0.361973727985     0.0326753718298
            42.4996     -0.367670761931     0.0358391139604
            42.7504     -0.373671953282     0.0378350403435
             42.999     -0.378518026333     0.0388728806081
            43.2498     -0.381080232734      0.038954495526
            43.5006     -0.380837869589     0.0383069638585
            43.7492     -0.378270873279     0.0370366198956
                 44     -0.374583204622     0.0350782149289
            44.2508      -0.37184746081     0.0325577699876
            44.4994     -0.372131333197     0.0298335639304
            44.7502     -0.376697280309      0.026684600714
             45.001     -0.385535852135     0.0229465685111
            45.2496      -0.39657031454     0.0193997253215
            45.5004     -0.406920201595     0.0159256687905
             45.749     -0.413392121649     0.0131793992439
            45.9998     -0.414426687286     0.0118902616694
            46.2506      -0.40985263793     0.0126888478587
            46.4992       -0.4017437086     0.0151231960382
              46.75     -0.393123579185     0.0180558051466
            47.0008     -0.388132413464     0.0207510185372
            47.2494     -0.390339794751     0.0234222715222
            47.5002     -0.401054681595     0.0260897610714
             47.751     -0.418288870283     0.0287059762706
            47.9996     -0.436374589751     0.0308700373584
            48.2504     -0.449568562451     0.0332212214392
             48.499     -0.453047885214     0.0350371051214
            48.7498     -0.446207305002     0.0366148877996
            49.0006     -0.431677358059     0.0376443268004
            49.2492     -0.414345445004     0.0379582595069
               49.5     -0.400654294781     0.0375171911683
            49.7508     -0.397376804804     0.0357130222711
            49.9994     -0.408743430026     0.0332995471573
            50.2502      -0.43323718297      0.030681070423
             50.501     -0.462986268588     0.0286435671529
            50.7496     -0.486798678068      0.026959129745
            51.0004     -0.496667900841     0.0262058852996
             51.249     -0.489816464593     0.0267375021573
            51.4998     -0.468347782687     0.0293303970411
            51.7506     -0.438613356127     0.0339837450273
            51.9992     -0.409450168806     0.0398822688352
              52.25     -0.390356715733     0.0467902789736
            52.5008     -0.391480303914     0.0535253932595
            52.7494     -0.415486478118     0.0591283711484
            53.0002      -0.45425586898     0.0626499814849
             53.251     -0.492130327498     0.0643083766925
            53.4996     -0.515728836616      0.064404726991
            53.7504     -0.518930092875     0.0638204628798
             53.999     -0.502439407683     0.0634111063326
            54.2498     -0.472156104106     0.0635012519545
            54.5006     -0.436272660059     0.0645757954715
            54.7492     -0.407657925956     0.0671896916637
                 55     -0.397546274456     0.0710641940545
            55.2508     -0.414944742628     0.0755262252689
            55.4994     -0.452415377676     0.0798446395015
            55.7502      -0.49317052654     0.0834330041995
             56.001     -0.520952633687     0.0850439874901
            56.2496     -0.528153235241     0.0831946572848
            56.5004      -0.51438226686     0.0787369930264
             56.749     -0.485147286428     0.0726845633955
            56.9998     -0.449518633338     0.0658619546863
            57.2506     -0.417262382356       0.05974108606
            57.4992      -0.40477280578     0.0555799692315
              57.75     -0.422824105808     0.0539763616007
            58.0008     -0.468880626921     0.0550926611919
            58.2494     -0.522046498203     0.0583124649163
            58.5002     -0.562158381424     0.0631451197655
             58.751     -0.577312768315      0.068816319703
            58.9996     -0.565271823984     0.0747881779993
            59.2504     -0.530950520838     0.0798037919148
             59.499     -0.485019497473     0.0828548367367
            59.7498     -0.439201995458     0.0832866942133
            60.0006     -0.411026454307      0.080810961077
            60.2492     -0.416277488513     0.0763516590745
               60.5     -0.458798415893      0.070456228074
            60.7508     -0.519452469012     0.0636738374934
            60.9994     -0.572165126716     0.0571977342903
            61.2502     -0.601974185794     0.0518940722875
             61.501     -0.602842864604     0.0480079225663
            61.7496       -0.5770271165     0.0449161338881
            62.0004     -0.531829195273     0.0437091512916
             62.249     -0.481262741412     0.0440220275534
            62.4998     -0.438897256466     0.0452440943259
            62.7506     -0.427289809346     0.0470565264195
            62.9992     -0.456426543629     0.0486780108938
              63.25     -0.513580170835      0.049890330343
            63.5008     -0.571469961991     0.0505077372318
            63.7494     -0.610056009639     0.0514617534308
            64.0002     -0.620918639456     0.0525700368469
             64.251     -0.602744685346     0.0543073189222
            64.4996     -0.562315840889     0.0562991128892
            64.7504     -0.510247046008     0.0582279509638
             64.999     -0.461185857272     0.0598107944835
