# Probe 0  1 0 0 
# Probe 1  10 2.5 0 
#             Probe                   0                   1
#              Time
             0.2508                    0.691483470725 3.52953509424e-05 2.63072385657e-22                     0.999998338803 -0.000216181836987 0 
             0.4994                    0.596613290501 5.28459662187e-05 2.65460961069e-22                     0.999998467085 -0.000243153791503 0 
             0.7502                    0.450465511834 5.60183438917e-05 2.32516053257e-22                     0.99999847242 -0.00027732078598 0 
              1.001                    0.262021439597 -1.47643694774e-06 1.23710856438e-22                     0.999998704612 -0.000314567702295 0 
             1.2496                    0.0601539036237 -0.000105736743203 -6.91480570699e-23                     0.999999167125 -0.000355214801465 0 
             1.5004                    -0.13446222145 -0.000227857784056 -3.31096505393e-22                     0.999999955918 -0.000399773251073 0 
              1.749                    -0.302760586417 -0.000336574583915 -6.16407259467e-22                     1.00000116889 -0.000447172994324 0 
             1.9998                    -0.441215794462 -0.000409499082744 -8.92250401322e-22                     1.00000296708 -0.000498049842005 0 
             2.2506                    -0.545302680983 -0.000438623959858 -1.12798112981e-21                     1.00000550387 -0.000551984025673 0 
             2.4992                    -0.620164126108 -0.000403780433899 -1.2997870671e-21                     1.00000891725 -0.000608679797487 0 
               2.75                    -0.662399201972 -0.000311602951165 -1.40135568269e-21                     1.00001343881 -0.000669593079711 0 
             3.0008                    -0.681682790284 -0.000187630875018 -1.447000013e-21                     1.0000191551 -0.000734903596876 0 
             3.2494                    -0.691046588634 -5.52061389351e-05 -1.46998773399e-21                     1.00002599106 -0.000804782926777 0 
             3.5002                    -0.690572521343 0.000111271345763 -1.47494530098e-21                     1.00003384741 -0.00088120648335 0 
              3.751                    -0.683459991948 0.000275861555092 -1.45929876409e-21                     1.00004215457 -0.000963642782989 0 
             3.9996                    -0.671512544373 0.000425820242836 -1.43717755992e-21                     1.00005005181 -0.00104939816397 0 
             4.2504                    -0.659224220752 0.000564096813932 -1.41080739103e-21                     1.00005681843 -0.00113472169422 0 
              4.499                    -0.645376599406 0.000662386707987 -1.38341976793e-21                     1.00006172744 -0.00121061246698 0 
             4.7498                    -0.630858469961 0.000731767970984 -1.35491660497e-21                     1.00006448981 -0.00127540676123 0 
             5.0006                    -0.615525392282 0.000775255265773 -1.32634234102e-21                     1.00006406434 -0.00134129352516 0 
             5.2492                    -0.600062712509 0.000773949658449 -1.29820002839e-21                     1.0000576931 -0.00143912928061 0 
                5.5                    -0.584172813293 0.000738488223557 -1.27020410345e-21                     1.00004110174 -0.00160083259725 0 
             5.7508                    -0.568167283854 0.00066877769206 -1.24281053742e-21                     1.00001328937 -0.00181708098525 0 
             5.9994                    -0.552314734289 0.000560094501342 -1.21635941504e-21                     0.999983878205 -0.00202294449724 0 
             6.2502                    -0.536410754068 0.000421498697119 -1.19062716601e-21                     0.999976173617 -0.00214328209332 0 
              6.501                    -0.520749572722 0.000257031949305 -1.16597511548e-21                     1.00002406956 -0.00214555548116 0 
             6.7496                    -0.505504812398 7.24779977045e-05 -1.14267545349e-21                     1.00015347291 -0.00207101315519 0 
             7.0004                    -0.490464103754 -0.000125480841573 -1.12024597981e-21                     1.0003652718 -0.00198924878857 0 
              7.249                    -0.47591390771 -0.000324147021698 -1.09913125717e-21                     1.00060703567 -0.00196399059545 0 
             7.4998                    -0.461610679154 -0.0005205520175 -1.07885702703e-21                     1.00078934828 -0.00205854852977 0 
             7.7506                    -0.447693907982 -0.00070166166756 -1.05950101219e-21                     1.00081583325 -0.00234432006026 0 
             7.9992                    -0.434285998618 -0.00085644755932 -1.04132215021e-21                     1.000666707 -0.00283575066499 0 
               8.25                    -0.421156886971 -0.000979388952549 -1.02389444819e-21                     1.00042855064 -0.00344637335179 0 
             8.5008                    -0.408431956529 -0.00106018724392 -1.00736992663e-21                     1.00025489404 -0.00400368975424 0 
             8.7494                    -0.396218731888 -0.00109234638542 -9.91853142866e-22                     1.00025179947 -0.00439794176191 0 
             9.0002                    -0.384307007767 -0.00107259112128 -9.77034831168e-22                     1.00041234999 -0.00466892145002 0 
              9.251                    -0.372800123784 -0.000997237582927 -9.63050777601e-22                     1.00065507768 -0.00492163840981 0 
             9.4996                    -0.361790634532 -0.000867357694866 -9.49922150131e-22                     1.00091348567 -0.00522219272597 0 
             9.7504                    -0.351077634734 -0.000682863178721 -9.37409652249e-22                     1.00119239276 -0.00556571933496 0 
              9.999                    -0.340844237099 -0.000452266280099 -9.25717456157e-22                     1.00151974309 -0.00590417692251 0 
            10.2498                    -0.330904554312 -0.000179211596548 -9.14579690009e-22                     1.00191937556 -0.00621769552701 0 
            10.5006                    -0.32134219481 0.000126210517075 -9.04115460434e-22                     1.00238302293 -0.00649900228101 0 
            10.7492                    -0.312222892522 0.000448566990492 -8.94335823751e-22                     1.00289816623 -0.00674766399209 0 
                 11                    -0.303375731403 0.000780753428724 -8.8504098739e-22                     1.00347675387 -0.00696933921725 0 
            11.2508                    -0.294875972064 0.00110231173146 -8.76286979338e-22                     1.00412069557 -0.00716516616674 0 
            11.4994                    -0.2867877446 0.00139680810216 -8.68099102161e-22                     1.00482214888 -0.00733581429229 0 
            11.7502                    -0.278959615161 0.00165546153345 -8.60313128448e-22                     1.00557924259 -0.0074718910643 0 
             12.001                    -0.271453168259 0.0018602835875 -8.52979636597e-22                     1.00635547279 -0.00753206509088 0 
            12.2496                    -0.264319853889 0.00199722474772 -8.46137703129e-22                     1.00709805647 -0.00745249884751 0 
            12.5004                    -0.257425607885 0.00205741964782 -8.39641473294e-22                     1.00776989262 -0.00716461134004 0 
             12.749                    -0.250882764687 0.00203220171092 -8.33584682326e-22                     1.0083274753 -0.00664202011316 0 
            12.9998                    -0.2445655892 0.00191557110433 -8.27832279797e-22                     1.00878567533 -0.00591309258124 0 
            13.2506                    -0.238523429208 0.00170660865783 -8.22447532235e-22                     1.00918100953 -0.00510058120875 0 
            13.4992                    -0.232797576806 0.00141102243796 -8.1736392284e-22                     1.00956608744 -0.00439102042284 0 
              13.75                    -0.227278409361 0.00103088690042 -8.12559113331e-22                     1.00998674515 -0.00396984388896 0 
            14.0008                    -0.222008529255 0.000579307999217 -8.08032307421e-22                     1.01044498766 -0.00400845202452 0 
            14.2494                    -0.21702193597 7.61487987765e-05 -8.03834311824e-22                     1.0109156935 -0.00457588003178 0 
            14.5002                    -0.212221618588 -0.000469080743718 -7.99799510738e-22                     1.01138295765 -0.00562678472094 0 
             14.751                    -0.20764453448 -0.00103063550525 -7.96021701576e-22                     1.01183109898 -0.006954497019 0 
            14.9996                    -0.203320158734 -0.00157999554529 -7.92489638778e-22                     1.01225673428 -0.00824307671219 0 
            15.2504                    -0.199164471462 -0.00210230630437 -7.89126244705e-22                     1.01267009503 -0.00923186862917 0 
             15.499                    -0.195242853698 -0.00256376896674 -7.85980374187e-22                     1.01306607708 -0.0097802396634 0 
            15.7498                    -0.191478417786 -0.00294848475304 -7.82990047577e-22                     1.01345875343 -0.00998924493081 0 
            16.0006                    -0.187899045936 -0.00322946661789 -7.80173286961e-22                     1.01385841758 -0.0100799473372 0 
            16.2492                    -0.184526150539 -0.00338635854719 -7.7753730143e-22                     1.01427221218 -0.0102487754152 0 
               16.5                    -0.181292715248 -0.00340655232444 -7.75028851266e-22                     1.01470324025 -0.0105518240475 0 
            16.7508                    -0.178221944464 -0.00327810639542 -7.72665633351e-22                     1.01512965781 -0.0109150161774 0 
            16.9994                    -0.175331812487 -0.00299958921524 -7.7045566185e-22                     1.01553154741 -0.0112456373898 0 
            17.2502                    -0.172564314643 -0.00256852900055 -7.68359031673e-22                     1.01591529283 -0.0115272794817 0 
             17.501                    -0.169938852634 -0.00199563284436 -7.66383694935e-22                     1.01628912378 -0.011794974141 0 
            17.7496                    -0.167470022579 -0.0013035638231 -7.64544067945e-22                     1.01665953278 -0.0120853586799 0 
            18.0004                    -0.165107891789 -0.000502625991313 -7.62799683504e-22                     1.0170322793 -0.012408910165 0 
             18.249                    -0.162888161089 0.000365144169532 -7.61176604531e-22                     1.01739514885 -0.0127457922121 0 
            18.4998                    -0.160766161853 0.00128134536777 -7.59636039563e-22                     1.0177535716 -0.0130958537298 0 
            18.7506                    -0.158756587361 0.00220063689252 -7.58199514976e-22                     1.01810976633 -0.013464186047 0 
            18.9992                    -0.156870439259 0.00307469551118 -7.56855429489e-22                     1.01846699444 -0.0138565412055 0 
              19.25                    -0.155069853419 0.00387755188964 -7.55582355139e-22                     1.01883529919 -0.0142816922037 0 
            19.5008                    -0.153367734018 0.00455957097979 -7.54400808366e-22                     1.01921440464 -0.0147339733892 0 
            19.7494                    -0.151773173723 0.00507893668427 -7.53300088499e-22                     1.01960538728 -0.015208256843 0 
            20.0002                    -0.150253441865 0.00541076750582 -7.52258484166e-22                     1.0200214571 -0.0157136939631 0 
             20.251                    -0.148818622541 0.00552139816163 -7.51276903593e-22                     1.0204654859 -0.0162455582499 0 
            20.4996                    -0.147476031808 0.00539292618437 -7.50380789532e-22                     1.02093874568 -0.0167959577258 0 
            20.7504                    -0.146197390666 0.00501229037838 -7.49518445555e-22                     1.02145498132 -0.0173705069163 0 
             20.999                    -0.145000544214 0.00438558156486 -7.48726493239e-22                     1.02201029569 -0.017954270133 0 
            21.2498                    -0.143859650443 0.00351240149251 -7.47977741753e-22                     1.02261895595 -0.0185513348019 0 
            21.5006                    -0.142781090585 0.00241917413667 -7.47288003605e-22                     1.02327944167 -0.0191487558406 0 
            21.7492                    -0.14176938184 0.00115167782138 -7.46628935218e-22                     1.0239869103 -0.0197323316563 0 
                 22                    -0.140802949132 -0.000269004191502 -7.4602980299e-22                     1.02475381375 -0.0203024826767 0 
            22.2508                    -0.139887537297 -0.00177917338465 -7.45467160903e-22                     1.02557199693 -0.0208432288073 0 
            22.4994                    -0.139028015136 -0.00330365789473 -7.44920650841e-22                     1.02642927295 -0.0213393048337 0 
            22.7502                    -0.138207552582 -0.00480282000199 -7.44395813021e-22                     1.02733392248 -0.0217885313555 0 
             23.001                    -0.137433182932 -0.00619329370946 -7.43881349229e-22                     1.02826909639 -0.0221759069603 0 
            23.2496                    -0.136710405205 -0.00739534123316 -7.43400837733e-22                     1.02921421557 -0.0224895773883 0 
            23.5004                    -0.13602599181 -0.00836306307553 -7.42936541634e-22                     1.03017135738 -0.0227274164449 0 
             23.749                    -0.135391503806 -0.00901986335858 -7.42503843101e-22                     1.03110680923 -0.0228800958941 0 
            23.9998                    -0.134794735421 -0.00932590660359 -7.42084191451e-22                     1.03201813835 -0.0229480979421 0 
            24.2506                    -0.134239504314 -0.00923375922191 -7.41690621133e-22                     1.03287633556 -0.0229312595028 0 
            24.4992                    -0.1337266759 -0.00872464196695 -7.41328770919e-22                     1.03365336208 -0.0228366159637 0 
              24.75                    -0.133242323841 -0.00778152136244 -7.41015886536e-22                     1.03434134967 -0.0226731040331 0 
            25.0008                    -0.132785566968 -0.00641806410857 -7.40721540562e-22                     1.03491243005 -0.0224574018366 0 
            25.2494                    -0.132354601576 -0.00468257389946 -7.40505761691e-22                     1.03534508774 -0.0222135238674 0 
            25.5002                    -0.131936674845 -0.00259468238581 -7.40327731174e-22                     1.03563241996 -0.0219643520251 0 
             25.751                    -0.131531584877 -0.00023774017834 -7.40197153659e-22                     1.03576052746 -0.021744699404 0 
            25.9996                    -0.131140108526 0.00227841272206 -7.40121355418e-22                     1.03572774397 -0.0215927185075 0 
            26.2504                    -0.130754759385 0.00489786522002 -7.40061046737e-22                     1.03553891932 -0.0215459550493 0 
             26.499                    -0.130383791896 0.00746405319676 -7.40043417214e-22                     1.03521213993 -0.0216465619903 0 
            26.7498                    -0.130023982656 0.00990365494519 -7.40082728809e-22                     1.0347664242 -0.0219379505602 0 
            27.0006                    -0.129683758669 0.0120719499339 -7.4010135261e-22                     1.03423976964 -0.0224590868945 0 
            27.2492                    -0.12937219728 0.0138363433313 -7.40183319535e-22                     1.03368297139 -0.023236059593 0 
               27.5                    -0.129089711876 0.0151183873619 -7.40303032539e-22                     1.03314112321 -0.0243084127886 0 
            27.7508                    -0.128842189311 0.0158029622185 -7.4045976553e-22                     1.03268219496 -0.0256864701173 0 
            27.9994                    -0.128631236926 0.0158149742518 -7.40651470604e-22                     1.0323766392 -0.0273579921187 0 
            28.2502                    -0.128449083853 0.0151014956087 -7.40944563574e-22                     1.03229016066 -0.0293428938144 0 
             28.501                    -0.128289743714 0.0136352437499 -7.41267194764e-22                     1.03249711939 -0.0316033362528 0 
            28.7496                    -0.128143433969 0.0114470260411 -7.41713395801e-22                     1.0330586116 -0.0340777944682 0 
            29.0004                    -0.12799545203 0.00854133299901 -7.42254480183e-22                     1.03404524167 -0.0367578189 0 
             29.249                    -0.127836183109 0.0050462507317 -7.42902442567e-22                     1.03549120088 -0.0395322322355 0 
            29.4998                    -0.127652024625 0.00101334732271 -7.43665688437e-22                     1.03746205681 -0.0423740429904 0 
            29.7506                    -0.127437349811 -0.003382887104 -7.44483448801e-22                     1.03997557893 -0.0451735986615 0 
            29.9992                    -0.127193120465 -0.00792710018881 -7.45367170543e-22                     1.04301636838 -0.0478153306943 0 
              30.25                    -0.126920414972 -0.0125011577999 -7.46280044691e-22                     1.04663593596 -0.0502476426455 0 
            30.5008                    -0.126634286264 -0.0168499809893 -7.47289000444e-22                     1.050792245 -0.0523433292649 0 
            30.7494                    -0.126356072646 -0.0207183536462 -7.48182040277e-22                     1.05540700507 -0.0539844093501 0 
            31.0002                    -0.126103178455 -0.0239517116935 -7.4915780919e-22                     1.06050868054 -0.0550926942549 0 
             31.251                    -0.125898469367 -0.026299984352 -7.50335167157e-22                     1.06598498151 -0.0555439018154 0 
            31.4996                    -0.125757811282 -0.0275664415504 -7.51319548959e-22                     1.07168984217 -0.0552383197787 0 
            31.7504                    -0.125683798263 -0.02761479361 -7.52557806787e-22                     1.07760514684 -0.0540698012834 0 
             31.999                    -0.125670631422 -0.0263327599282 -7.54056414721e-22                     1.08348149088 -0.0519663696979 0 
            32.2498                    -0.125699624391 -0.0236356944109 -7.55620209738e-22                     1.08924356222 -0.0488108175875 0 
            32.5006                    -0.125740926254 -0.0195274679186 -7.57670713137e-22                     1.0946209479 -0.0445598015447 0 
            32.7492                    -0.12575499775 -0.0141314501112 -7.60011712202e-22                     1.0993184165 -0.0392439395953 0 
                 33                    -0.125701072078 -0.00749723337476 -7.62809534883e-22                     1.10312391188 -0.0328004484923 0 
            33.2508                    -0.125543933415 0.000109778528463 -7.65973336699e-22                     1.10566609335 -0.0253810608738 0 
            33.4994                    -0.12526650301 0.00831477687475 -7.69425713397e-22                     1.10661185515 -0.0172811151773 0 
            33.7502                    -0.124865642791 0.0168936808684 -7.73157579655e-22                     1.10566960687 -0.00870243058673 0 
             34.001                    -0.124371616734 0.025348164317 -7.76969977281e-22                     1.10256017145 -0.000158102005351 0 
            34.2496                    -0.123845432928 0.0331436763747 -7.81103168716e-22                     1.09715897888 0.00773005467197 0 
            34.5004                    -0.12335645633 0.0399268870366 -7.85051752393e-22                     1.08939792599 0.0144024521442 0 
             34.749                    -0.122997174315 0.0450882001829 -7.89451674424e-22                     1.07971367475 0.0189454686259 0 
            34.9998                    -0.122832952187 0.0482514719185 -7.9375962722e-22                     1.06848766551 0.0207341464995 0 
            35.2506                    -0.122915940364 0.048950989635 -7.98256576446e-22                     1.05656764697 0.0192744866691 0 
            35.4992                    -0.123246910711 0.0468896302538 -8.02853250231e-22                     1.04497233925 0.0144318563529 0 
              35.75                    -0.123780760944 0.0418266263406 -8.0819445276e-22                     1.03444686485 0.00615735144723 0 
            36.0008                    -0.124409780503 0.0337216011759 -8.1358186212e-22                     1.02596070345 -0.00520702407722 0 
            36.2494                    -0.124984038281 0.0228349452479 -8.19941760748e-22                     1.02024096037 -0.0189513752778 0 
            36.5002                    -0.125358521345 0.0093518550723 -8.26782352343e-22                     1.01765821382 -0.0346407426233 0 
             36.751                    -0.12540358296 -0.00602377347557 -8.34181230718e-22                     1.01854663843 -0.0514962709714 0 
            36.9996                    -0.125074730755 -0.0222965358931 -8.41514886992e-22                     1.02296261927 -0.0687399104332 0 
            37.2504                    -0.12442514978 -0.0387239274339 -8.48569505114e-22                     1.03099783653 -0.0861115594923 0 
             37.499                    -0.123634948586 -0.0538753877894 -8.54743139556e-22                     1.04248264612 -0.102835986397 0 
            37.7498                    -0.122962583859 -0.0668245707886 -8.59904614694e-22                     1.05759312052 -0.118808020635 0 
            38.0006                    -0.122732225507 -0.0762464720669 -8.63859349307e-22                     1.07627344464 -0.133494019909 0 
            38.2492                    -0.123209838649 -0.0810642569889 -8.66955566376e-22                     1.09843184726 -0.146377353529 0 
               38.5                    -0.124549135647 -0.080506122641 -8.69603484635e-22                     1.12469218652 -0.157177789229 0 
            38.7508                    -0.12669119874 -0.0739313011401 -8.72554581361e-22                     1.15523899303 -0.165047375098 0 
            38.9994                    -0.129313013062 -0.0612866340865 -8.76671856429e-22                     1.19021355738 -0.168868352312 0 
            39.2502                    -0.131963416257 -0.042640810836 -8.82319643984e-22                     1.23071444159 -0.166992261836 0 
             39.501                    -0.1340348035 -0.018949802699 -8.8996327982e-22                     1.27664656726 -0.156621575401 0 
            39.7496                    -0.135037176721 0.00806844947486 -8.99065416966e-22                     1.3264624967 -0.133617005723 0 
            40.0004                    -0.134790023964 0.03691994547 -9.08872323113e-22                     1.37547667449 -0.0903821498784 0 
             40.249                    -0.1335022914 0.0648143234022 -9.17735549435e-22                     1.4051442634 -0.0172016196608 0 
            40.4998                    -0.131757437624 0.0898383905103 -9.24674371608e-22                     1.38377239103 0.091746860354 0 
            40.7506                    -0.130438429248 0.109461373422 -9.28703567601e-22                     1.29923346907 0.209169130732 0 
            40.9992                    -0.130451582934 0.12161863113 -9.30148061548e-22                     1.18863724978 0.285984736952 0 
              41.25                    -0.132432880125 0.124954097595 -9.30091527112e-22                     1.08818559408 0.306818881521 0 
            41.5008                    -0.136498044605 0.118218608079 -9.30781110779e-22                     1.01530419407 0.284051559731 0 
            41.7494                    -0.142008374037 0.101108390147 -9.33983754658e-22                     0.968536737803 0.241945322172 0 
            42.0002                    -0.147839075972 0.0736380335219 -9.4186927615e-22                     0.940303849049 0.195496251908 0 
             42.251                    -0.152390655435 0.0373023743113 -9.54533983862e-22                     0.928252893206 0.151434529953 0 
            42.4996                    -0.154333398092 -0.0049186404851 -9.70111689189e-22                     0.927139780423 0.112867030842 0 
            42.7504                    -0.153174804025 -0.0501904773273 -9.85980852724e-22                     0.930085932714 0.0771807415376 0 
             42.999                    -0.149499921749 -0.0936548228137 -9.98266787221e-22                     0.933436784125 0.0417707649807 0 
            43.2498                    -0.144806574018 -0.132039560012 -1.00403681647e-21                     0.938544368293 0.00609698633723 0 
            43.5006                    -0.141216928648 -0.161438785662 -1.00201766965e-21                     0.948682167929 -0.0264748002982 0 
            43.7492                    -0.140732193757 -0.178968294825 -9.93591763873e-22                     0.964522967519 -0.0537664994932 0 
                 44                    -0.144594512953 -0.18286379285 -9.81984660961e-22                     0.984614478209 -0.0768265396346 0 
            44.2508                    -0.152784907635 -0.171404725421 -9.72726915903e-22                     1.0078872126 -0.0960005346712 0 
            44.4994                    -0.163554542856 -0.144117472126 -9.71364183343e-22                     1.03447531307 -0.110492307669 0 
            44.7502                    -0.174062950321 -0.101015797533 -9.81346113163e-22                     1.06480566551 -0.119817449549 0 
             45.001                    -0.180740919979 -0.0447843985033 -1.0029333411e-21                     1.09834454488 -0.123022419487 0 
            45.2496                    -0.1812150014 0.0191830284127 -1.03097818897e-21                     1.13451856764 -0.118394144255 0 
            45.5004                    -0.17540234681 0.0856548797109 -1.05811307825e-21                     1.17270848387 -0.103210366557 0 
             45.749                    -0.165740425557 0.146914868355 -1.07598541357e-21                     1.20867964883 -0.0742979951392 0 
            45.9998                    -0.155970278208 0.198377220462 -1.08038128644e-21                     1.23412018656 -0.0270916913716 0 
            46.2506                    -0.150305975377 0.235274954842 -1.07063877571e-21                     1.23135839523 0.038638897169 0 
            46.4992                    -0.151817804857 0.254486823477 -1.05202880947e-21                     1.18860310587 0.106998466467 0 
              46.75                    -0.161825758715 0.254087488006 -1.03242365295e-21                     1.12529926814 0.148895128635 0 
            47.0008                    -0.178842593964 0.231752918473 -1.02259940112e-21                     1.07293359387 0.155929037226 0 
            47.2494                    -0.198047457208 0.186694198872 -1.03171116556e-21                     1.03465067052 0.147384635099 0 
            47.5002                    -0.21294356033 0.119346910255 -1.06281444785e-21                     1.00355912835 0.1326929218 0 
             47.751                    -0.217299875067 0.0354289341344 -1.11003105588e-21                     0.980049994119 0.11169295403 0 
            47.9996                    -0.209472119543 -0.0551297675009 -1.15801459957e-21                     0.964764047447 0.0863886609913 0 
            48.2504                    -0.192791445842 -0.143845578435 -1.19167326653e-21                     0.956003417525 0.0593063353174 0 
             48.499                    -0.174189808228 -0.220766321463 -1.19867978004e-21                     0.952072376319 0.0323106760424 0 
            48.7498                    -0.160433589043 -0.281350696897 -1.17785994695e-21                     0.952168017134 0.00523348109613 0 
            49.0006                    -0.157321489308 -0.321174173849 -1.13610845821e-21                     0.956851416664 -0.0209715645091 0 
            49.2492                    -0.167170556098 -0.337171197808 -1.0873654012e-21                     0.966558529416 -0.0448448100302 0 
               49.5                    -0.189868826292 -0.326736872412 -1.04737989577e-21                     0.981161322513 -0.065858485432 0 
            49.7508                    -0.219564154236 -0.28631529293 -1.03422455687e-21                     0.999847887573 -0.0834397477231 0 
            49.9994                    -0.245096552152 -0.215287669152 -1.05941390779e-21                     1.02201287692 -0.0971150268592 0 
            50.2502                    -0.255241867825 -0.117066170228 -1.11985425454e-21                     1.04795034719 -0.106351928604 0 
             50.501                    -0.245007917535 -0.00377410968126 -1.19600890534e-21                     1.07721292681 -0.10990238996 0 
            50.7496                    -0.219854031823 0.109671233395 -1.25886025525e-21                     1.10888118236 -0.106283293083 0 
            51.0004                    -0.18999902168 0.213945500007 -1.28699170574e-21                     1.14208491202 -0.093209109915 0 
             51.249                    -0.166444430282 0.29974903746 -1.27236134546e-21                     1.17282236095 -0.0682105298634 0 
            51.4998                    -0.156417978148 0.363724641215 -1.21900742933e-21                     1.19410930322 -0.0285663528573 0 