# Force coefficients
# liftDir           : (0.000000000000e+00 1.000000000000e+00 0.000000000000e+00)
# dragDir           : (1.000000000000e+00 0.000000000000e+00 0.000000000000e+00)
# pitchAxis         : (0.000000000000e+00 0.000000000000e+00 1.000000000000e+00)
# magUInf           : 1.000000000000e+00
# lRef              : 1.000000000000e+00
# Aref              : 1.000000000000e+00
# CofR              : (0.000000000000e+00 0.000000000000e+00 0.000000000000e+00)
# Time              	Cm                  	Cd                  	Cl                  	Cl(f)               	Cl(r)               
0.0022              	-6.729092287774e-06	1.451809236110e+03	-7.438901522322e-02	-3.720123670390e-02	-3.718777851932e-02
0.0044              	2.126298737244e-05	-3.312838622890e-01	1.285614530792e-01	6.430198952697e-02	6.425946355223e-02
0.0066              	2.131936162804e-05	8.062386719185e-01	-2.375003052795e-02	-1.185369590235e-02	-1.189633462560e-02
0.0088              	2.130550976651e-05	1.385427358645e+00	-6.414130739603e-04	-2.994010272136e-04	-3.420120467466e-04
0.011               	2.024878185853e-05	1.592127687973e+00	-2.969159467856e-04	-1.282091915343e-04	-1.687067552513e-04
0.0132              	1.921983984169e-05	1.727078481924e+00	-2.454479708040e-04	-1.035041455603e-04	-1.419438252437e-04
0.0154              	1.819349895736e-05	1.824464323814e+00	-4.346444673251e-04	-1.991287347052e-04	-2.355157326199e-04
0.0176              	1.722123060487e-05	1.896769053316e+00	-2.608847552381e-04	-1.132211470142e-04	-1.476636082239e-04
0.0198              	1.628668587790e-05	1.951266495676e+00	-4.127625694598e-04	-1.900945988520e-04	-2.226679706078e-04
0.022               	1.538526674329e-05	1.990803482030e+00	-3.568729823425e-04	-1.630512244280e-04	-1.938217579145e-04
0.0242              	1.450607788220e-05	2.017689875568e+00	-4.116994542141e-04	-1.913436492248e-04	-2.203558049892e-04
0.0264              	1.368716774437e-05	2.038743716103e+00	-4.770598251625e-04	-2.248427448369e-04	-2.522170803256e-04
0.0286              	1.288033106567e-05	2.051500047813e+00	-4.648329545806e-04	-2.195361462246e-04	-2.452968083560e-04
0.0308              	1.206454846731e-05	2.059991264630e+00	-3.256577333115e-04	-1.507643181885e-04	-1.748934151231e-04
0.033               	1.127719057737e-05	2.063557413851e+00	-3.913727806426e-04	-1.844091997439e-04	-2.069635808987e-04
0.0352              	1.050832305778e-05	2.066139309179e+00	-2.835928290815e-04	-1.312880914830e-04	-1.523047375986e-04
0.0374              	9.738132016985e-06	2.065480948416e+00	-2.530563582787e-04	-1.167900471223e-04	-1.362663111563e-04
0.0396              	8.981479954483e-06	2.065322889622e+00	-2.877921588838e-04	-1.349145994874e-04	-1.528775593964e-04
0.0418              	8.234876338678e-06	2.063306004025e+00	-2.178758360251e-04	-1.007030416739e-04	-1.171727943512e-04
0.044               	7.514855620986e-06	2.061277863196e+00	-2.986349811862e-04	-1.418026349721e-04	-1.568323462141e-04
0.0462              	6.794322918011e-06	2.058127466048e+00	-1.909996055797e-04	-8.870547987183e-05	-1.022941257079e-04
0.0484              	6.098148737256e-06	2.055090668519e+00	-3.231147912153e-04	-1.554592468704e-04	-1.676555443449e-04
0.0506              	5.393061060904e-06	2.051354633726e+00	-2.199548679786e-04	-1.045843729284e-04	-1.153704950502e-04
0.0528              	4.705893215240e-06	2.047015148398e+00	-1.973192779720e-04	-9.395374577077e-05	-1.033655322012e-04
0.055               	4.027334569643e-06	2.042453286420e+00	-1.532363723051e-04	-7.259085158291e-05	-8.064552072220e-05
0.0572              	3.357983982072e-06	2.037445898776e+00	-1.546404314830e-04	-7.396223175945e-05	-8.067819972360e-05
0.0594              	2.697035507123e-06	2.032099814476e+00	-1.304999483083e-04	-6.255293864701e-05	-6.794700966126e-05
0.0616              	2.046474578972e-06	2.026564825777e+00	-1.746057150723e-04	-8.525638295715e-05	-8.934933211510e-05
0.0638              	1.399084419396e-06	2.021036326812e+00	-1.032106659374e-04	-5.020624854931e-05	-5.300441738810e-05
0.066               	7.607162311740e-07	2.015359118957e+00	-1.390654765508e-04	-6.877202204424e-05	-7.029345450659e-05
0.0682              	1.258458084981e-07	2.009444028056e+00	-6.185413019683e-05	-3.080121928992e-05	-3.105291090691e-05
0.0704              	-5.004507707835e-07	2.003155712493e+00	-7.020889594271e-05	-3.560489874214e-05	-3.460399720057e-05
0.0726              	-1.111443384486e-06	1.997369569959e+00	-1.194780441251e-04	-6.085046544703e-05	-5.862757867805e-05
0.0748              	-1.729076382968e-06	1.990997855669e+00	2.219031679428e-05	9.366082014172e-06	1.282423478011e-05
0.077               	-2.320229048196e-06	1.984876039827e+00	-1.562238925564e-04	-8.043217532638e-05	-7.579171722998e-05
0.0792              	-2.932365646323e-06	1.977921845889e+00	-1.060180751276e-05	-8.233269402703e-06	-2.368538110057e-06
0.0814              	-3.506444818571e-06	1.971901283570e+00	-1.755848274430e-04	-9.129885854007e-05	-8.428596890293e-05
0.0836              	-4.099042997952e-06	1.965511982871e+00	-4.620482584222e-05	-2.720145591906e-05	-1.900336992316e-05
0.0858              	-4.653174707951e-06	1.959230202280e+00	-1.141581031118e-04	-6.173222626386e-05	-5.242587684796e-05
0.088               	-5.230478659831e-06	1.952918272946e+00	-7.671088373576e-05	-4.358592052771e-05	-3.312496320805e-05
0.0902              	-5.772713719502e-06	1.946657785162e+00	-6.516994674403e-05	-3.835768709152e-05	-2.681225965251e-05
0.0924              	-6.333448816844e-06	1.940180662632e+00	-1.139367627931e-04	-6.330183021338e-05	-5.063493257969e-05
0.0946              	-6.856282011024e-06	1.934239212890e+00	-6.132341146403e-05	-3.751798774304e-05	-2.380542372099e-05
0.0968              	-7.402902149634e-06	1.927915282882e+00	-1.266976857226e-04	-7.075174501092e-05	-5.594594071165e-05
0.099               	-7.918415424816e-06	1.921746493542e+00	-5.031115196939e-05	-3.307399140951e-05	-1.723716055988e-05
0.1012              	-8.448590605484e-06	1.915210021224e+00	-7.912970588985e-05	-4.801344355041e-05	-3.111626233944e-05
0.1034              	-8.950993226239e-06	1.909079724840e+00	-5.093645484015e-05	-3.441922064631e-05	-1.651723419383e-05
0.1056              	-9.462374273774e-06	1.902645632384e+00	-7.242944528386e-05	-4.567709691570e-05	-2.675234836816e-05
0.1078              	-9.955103721325e-06	1.896523427980e+00	-4.617506373588e-05	-3.304263558926e-05	-1.313242814661e-05
0.11                	-1.044258313570e-05	1.889885089165e+00	-8.703848845743e-07	-1.087777557799e-05	1.000739069342e-05
0.1122              	-1.092761510182e-05	1.883785093351e+00	-2.519716803905e-05	-2.352619912135e-05	-1.670968917702e-06
0.1144              	-1.140606487734e-05	1.877545336637e+00	-6.996485675647e-05	-4.638849325558e-05	-2.357636350089e-05
0.1166              	-1.187593606586e-05	1.871612581996e+00	-2.849062989812e-05	-2.612125101492e-05	-2.369378883206e-06
0.1188              	-1.233819449232e-05	1.865413797404e+00	-6.168481311575e-05	-4.318060105020e-05	-1.850421206556e-05
0.121               	-1.279370776353e-05	1.859491562094e+00	-3.790304530594e-05	-3.174523041650e-05	-6.157814889440e-06
0.1232              	-1.324382205434e-05	1.853265694062e+00	-6.386987060594e-06	-1.643731558464e-05	1.005032852405e-05
0.1254              	-1.368520466531e-05	1.847326760694e+00	-3.448480700534e-05	-3.092760816798e-05	-3.557198837359e-06
0.1276              	-1.412034530827e-05	1.841351069281e+00	-3.358077770926e-05	-3.091073416290e-05	-2.670043546357e-06
0.1298              	-1.454860164526e-05	1.835506001689e+00	-4.728879066132e-05	-3.819299697591e-05	-9.095793685402e-06
0.132               	-1.496872067120e-05	1.829679383130e+00	-5.953483245134e-05	-4.473613689687e-05	-1.479869555446e-05
0.1342              	-1.538919244901e-05	1.823825603299e+00	5.891437062479e-06	-1.244347391777e-05	1.833491098025e-05
0.1364              	-1.579292071956e-05	1.818105400344e+00	-6.185154904047e-05	-4.671869523980e-05	-1.513285380067e-05
0.1386              	-1.620332139938e-05	1.812402993305e+00	2.637315774864e-05	-3.016742525059e-06	2.938990027369e-05
0.1408              	-1.659117278296e-05	1.806870654347e+00	-9.051511051676e-05	-6.184872804134e-05	-2.866638247542e-05
0.143               	-1.699172336219e-05	1.801233583963e+00	4.863113413424e-05	7.323843704930e-06	4.130729042931e-05
0.1452              	-1.736596045040e-05	1.795761068976e+00	-8.383598816611e-05	-5.928395453345e-05	-2.455203363265e-05
0.1474              	-1.775524127247e-05	1.790216460785e+00	7.038576806057e-05	1.743764275781e-05	5.294812530276e-05
0.1496              	-1.811651941530e-05	1.784524751851e+00	-6.530793126653e-05	-5.077048504856e-05	-1.453744621797e-05
0.1518              	-1.849082721918e-05	1.779158031647e+00	1.043378278660e-04	3.367808671382e-05	7.065974115218e-05
0.154               	-1.884146195803e-05	1.774063441790e+00	-1.323027707539e-04	-8.499284733496e-05	-4.730992341890e-05
0.1562              	-1.920830745996e-05	1.768739071324e+00	8.052146811359e-05	2.105242659683e-05	5.946904151676e-05
0.1584              	-1.954282445041e-05	1.763725877177e+00	-7.010837497817e-05	-5.459701193949e-05	-1.551136303868e-05
0.1606              	-1.990067613073e-05	1.758464047653e+00	7.459852902259e-05	1.739858838056e-05	5.719994064203e-05
0.1628              	-2.022090870938e-05	1.753743329585e+00	-9.968318689544e-05	-7.006250215710e-05	-2.962068473834e-05
0.165               	-2.057328513044e-05	1.748594490533e+00	5.997124052144e-05	9.412335130278e-06	5.055890539116e-05
0.1672              	-2.087443457909e-05	1.743939390226e+00	-1.098359926884e-04	-7.579243092331e-05	-3.404356176513e-05
0.1694              	-2.122383254725e-05	1.739028116906e+00	8.752446673935e-05	2.253840082242e-05	6.498606591693e-05
0.1716              	-2.150928015954e-05	1.734448912034e+00	-1.011815648143e-04	-7.210006256669e-05	-2.908150224761e-05
0.1738              	-2.185195207914e-05	1.729371087248e+00	1.717284704776e-04	6.401228315967e-05	1.077161873180e-04
0.176               	-2.212322421358e-05	1.724840490391e+00	-1.571490785886e-04	-1.006977635079e-04	-5.645131508074e-05
0.1782              	-2.245624781062e-05	1.719899825620e+00	1.692978353842e-04	6.219266988148e-05	1.071051655027e-04
0.1804              	-2.271688422382e-05	1.715683479492e+00	-1.482783044727e-04	-9.685603646019e-05	-5.142226801255e-05
0.1826              	-2.303667284814e-05	1.710911939546e+00	1.518690041317e-04	5.289782921774e-05	9.897117491401e-05
0.1848              	-2.329056439679e-05	1.706559516917e+00	-1.385506815833e-04	-9.256590518844e-05	-4.598477639487e-05
0.187               	-2.359327808145e-05	1.702048637167e+00	1.118795833112e-04	3.234651357415e-05	7.953306973704e-05
0.1892              	-2.384508243789e-05	1.698020393591e+00	-9.629430093099e-05	-7.199223290339e-05	-2.430206802760e-05
0.1914              	-2.412776930622e-05	1.693776791237e+00	6.235840570751e-05	7.051433547532e-06	5.530697215998e-05
0.1936              	-2.437899474282e-05	1.689634101155e+00	-7.130194178684e-05	-6.002996563624e-05	-1.127197615060e-05
0.1958              	-2.464724987449e-05	1.685315985396e+00	4.851612245531e-05	-3.891886468326e-07	4.890531110214e-05
0.198               	-2.489349903778e-05	1.681144394545e+00	-2.173425245605e-05	-3.576062526580e-05	1.402637280975e-05
0.2002              	-2.514530600686e-05	1.677218189332e+00	2.677066527526e-05	-1.175997336923e-05	3.853063864449e-05
0.2024              	-2.538163711310e-05	1.673398592885e+00	1.248109548297e-05	-1.914108937161e-05	3.162218485458e-05
0.2046              	-2.562220870464e-05	1.669555263917e+00	-1.462551392560e-05	-3.293496566744e-05	1.830945174184e-05
0.2068              	-2.584919451547e-05	1.665888106547e+00	3.792443381227e-05	-6.886977609333e-06	4.481141142160e-05
0.209               	-2.607956310558e-05	1.662117712374e+00	-4.646199312433e-05	-4.931055966775e-05	2.848566543415e-06
0.2112              	-2.629827128249e-05	1.658468795763e+00	4.755756596264e-05	-2.519488301170e-06	5.007705426381e-05
0.2134              	-2.652305825858e-05	1.654496042797e+00	-1.987555503571e-05	-3.646083577644e-05	1.658528074072e-05
0.2156              	-2.673572034975e-05	1.650975054678e+00	2.735566970769e-05	-1.305788549590e-05	4.041355520359e-05
0.2178              	-2.696162369837e-05	1.646934253819e+00	7.699187286473e-05	1.153431273399e-05	6.545756013074e-05
0.22                	-2.714845870233e-05	1.643327907082e+00	-1.631618481167e-05	-3.530655110817e-05	1.899036629649e-05
0.2222              	-2.736483933908e-05	1.639971039376e+00	5.254945498666e-05	-1.090111845751e-06	5.363956683241e-05
0.2244              	-2.754442925732e-05	1.636506683857e+00	-2.743699436851e-05	-4.126292644158e-05	1.382593207307e-05
0.2266              	-2.774839746905e-05	1.632962580011e+00	9.781320616747e-05	2.115820561469e-05	7.665500055278e-05
0.2288              	-2.792393888508e-05	1.629362724024e+00	-2.655987312128e-05	-4.120387544571e-05	1.464400232444e-05
0.231               	-2.810960827696e-05	1.626316626009e+00	1.333181835235e-05	-2.144369910078e-05	3.477551745313e-05
0.2332              	-2.827928145574e-05	1.623279691250e+00	-1.066633607368e-05	-3.361244949257e-05	2.294611341890e-05
0.2354              	-2.846145020579e-05	1.619917002116e+00	4.055444144826e-05	-8.184229481656e-06	4.873867092992e-05
0.2376              	-2.863003802645e-05	1.616380696698e+00	3.520355319545e-05	-1.102826142872e-05	4.623181462417e-05
0.2398              	-2.880245841420e-05	1.613142775527e+00	4.798105226926e-05	-4.811932279572e-06	5.279298454883e-05
0.242               	-2.895078595439e-05	1.609802117808e+00	-2.902101052097e-05	-4.346129121488e-05	1.444028069391e-05
0.2442              	-2.912210114944e-05	1.607020727582e+00	8.274877512395e-05	1.225228641254e-05	7.049648871141e-05
0.2464              	-2.926335965491e-05	1.603420763399e+00	-3.201723830605e-05	-4.527197880793e-05	1.325474050188e-05
0.2486              	-2.942638762671e-05	1.600363540783e+00	7.546167100349e-05	8.304447875035e-06	6.715722312846e-05
0.2508              	-2.957073821195e-05	1.596622474471e+00	2.822720944938e-05	-1.545713348726e-05	4.368434293664e-05
0.253               	-2.971191066088e-05	1.593204086039e+00	3.110679090277e-05	-1.415851520949e-05	4.526530611227e-05
0.2552              	-2.983813665237e-05	1.590668300301e+00	5.888050114036e-07	-2.954373414667e-05	3.013253915807e-05
0.2574              	-2.997229741054e-05	1.587500079008e+00	6.095810130370e-05	5.067532413119e-07	6.045134806238e-05
0.2596              	-3.009675581158e-05	1.584363996572e+00	3.464350734728e-05	-1.277500213794e-05	4.741850948522e-05
0.2618              	-3.022250359013e-05	1.580907917478e+00	4.490262280641e-05	-7.771192186925e-06	5.267381499333e-05
0.264               	-3.033239806222e-05	1.578431906735e+00	-8.294565214118e-07	-3.074712632292e-05	2.991766980151e-05
0.2662              	-3.044301349530e-05	1.575858561027e+00	3.670690626787e-05	-1.208956036137e-05	4.879646662923e-05
0.2684              	-3.054781600943e-05	1.573333489833e+00	2.047518017658e-05	-2.031022592114e-05	4.078540609773e-05
0.2706              	-3.064955379266e-05	1.570910296154e+00	2.191029799661e-05	-1.969440479436e-05	4.160470279097e-05
0.2728              	-3.074742339757e-05	1.568495365650e+00	8.460924403458e-06	-2.651696119584e-05	3.497788559930e-05
0.275               	-3.084033866908e-05	1.566207465657e+00	3.175085388566e-05	-1.496491172625e-05	4.671576561191e-05
0.2772              	-3.093042620581e-05	1.563975491731e+00	1.904161432273e-05	-2.140961904444e-05	4.045123336717e-05
0.2794              	-3.101790438572e-05	1.561532091838e+00	7.533043838666e-06	-2.725138246638e-05	3.478442630505e-05
0.2816              	-3.109971389630e-05	1.559533087439e+00	8.025909619772e-06	-2.708675908642e-05	3.511266870619e-05
0.2838              	-3.117969222809e-05	1.557734706042e+00	2.524104946619e-05	-1.855916749500e-05	4.380021696119e-05
0.286               	-3.125465612722e-05	1.555551537121e+00	-7.688302137038e-06	-3.509880719574e-05	2.741050505870e-05
0.2882              	-3.132994482535e-05	1.553742881866e+00	3.461935395536e-05	-1.402026784767e-05	4.863962180302e-05
0.2904              	-3.139902385752e-05	1.551620544223e+00	2.442003817403e-05	-1.918900477050e-05	4.360904294454e-05
0.2926              	-3.146353031567e-05	1.549858901437e+00	7.117544477676e-06	-2.790475807683e-05	3.502230255450e-05
0.2948              	-3.152813942045e-05	1.548049728317e+00	9.252383424861e-06	-2.690194770802e-05	3.615433113288e-05
0.297               	-3.158798112915e-05	1.546104823277e+00	2.728868173593e-05	-1.794364026119e-05	4.523232199711e-05
0.2992              	-3.164363270949e-05	1.544467695392e+00	2.273329843483e-05	-2.027698349207e-05	4.301028192690e-05
0.3014              	-3.169427764876e-05	1.542933577376e+00	1.601740839208e-05	-2.368557345272e-05	3.970298184480e-05
0.3036              	-3.174761985758e-05	1.541460061774e+00	4.931499124802e-05	-7.090124233575e-06	5.640511548159e-05
0.3058              	-3.179716091678e-05	1.539473098292e+00	4.856120668802e-05	-7.516557572768e-06	5.607776426079e-05
0.308               	-3.183594592040e-05	1.537625906240e+00	-8.246894839838e-07	-3.224829066239e-05	3.142360117841e-05
0.3102              	-3.187894482822e-05	1.536108372260e+00	7.012318279522e-05	3.182646569389e-06	6.694053622583e-05
0.3124              	-3.192229947949e-05	1.533901352466e+00	6.945454830790e-05	2.804974674465e-06	6.664957363344e-05
0.3146              	-3.195552665854e-05	1.531809426594e+00	3.114020001820e-05	-1.638542664945e-05	4.752562666764e-05
0.3168              	-3.198438293079e-05	1.529889362120e+00	1.811917446686e-05	-2.292479569736e-05	4.104397016422e-05
0.319               	-3.201001896986e-05	1.528429153169e+00	2.847320405236e-05	-1.777341694368e-05	4.624662099604e-05
0.3212              	-3.203356055980e-05	1.527002167482e+00	2.366829740612e-05	-2.019941185674e-05	4.386770926287e-05
0.3234              	-3.205542058713e-05	1.525556556364e+00	2.693748896010e-05	-1.858667610708e-05	4.552416506719e-05
0.3256              	-3.207321193871e-05	1.524082581693e+00	3.290740422335e-05	-1.561950982703e-05	4.852691405038e-05
0.3278              	-3.208894084852e-05	1.522618503423e+00	2.295450154493e-05	-2.061169007606e-05	4.356619162099e-05
0.33                	-3.210019809442e-05	1.521169905569e+00	3.321542569579e-05	-1.549248524652e-05	4.870791094231e-05
0.3322              	-3.210917847748e-05	1.519747586679e+00	2.578942993592e-05	-1.921446350952e-05	4.500389344545e-05
0.3344              	-3.211398264665e-05	1.518318571068e+00	1.640797350438e-05	-2.390999589446e-05	4.031796939883e-05
0.3366              	-3.211902435205e-05	1.516882245653e+00	5.161671076433e-05	-6.310668969882e-06	5.792737973421e-05
0.3388              	-3.212057641096e-05	1.515523433357e+00	3.680923706128e-05	-1.371595788031e-05	5.052519494160e-05
0.341               	-3.211789198068e-05	1.514205783040e+00	2.491360806664e-05	-1.966108794736e-05	4.457469601400e-05
0.3432              	-3.211404762952e-05	1.512938284624e+00	3.251953502878e-05	-1.585428011513e-05	4.837381514391e-05
0.3454              	-3.210538472648e-05	1.511621056052e+00	3.842564626973e-05	-1.289256159162e-05	5.131820786135e-05
0.3476              	-3.209572194640e-05	1.510296000930e+00	4.199535393018e-05	-1.109804498131e-05	5.309339891149e-05
0.3498              	-3.208423129232e-05	1.509095585386e+00	2.851856323455e-05	-1.782494967505e-05	4.634351290959e-05
0.352               	-3.206894849192e-05	1.507896390692e+00	3.687650230445e-05	-1.363069733969e-05	5.050719964414e-05
0.3542              	-3.205254382015e-05	1.506732155019e+00	5.986069057129e-05	-2.122198534508e-06	6.198288910580e-05
0.3564              	-3.203224551191e-05	1.505388874709e+00	2.682508039433e-05	-1.861970531474e-05	4.544478570907e-05
0.3586              	-3.200823552273e-05	1.504392663898e+00	7.214546459703e-05	4.064496775789e-06	6.808096782125e-05
0.3608              	-3.198407934166e-05	1.503187485683e+00	-3.633486438982e-05	-5.015151153657e-05	1.381664714675e-05
0.363               	-3.195426334047e-05	1.502629529655e+00	6.302949186638e-05	-4.395174072738e-07	6.346900927366e-05
0.3652              	-3.192996683648e-05	1.501336541603e+00	2.458593279289e-05	-1.963700044004e-05	4.422293323293e-05
0.3674              	-3.189722264814e-05	1.500567137576e+00	8.316779302814e-05	9.686673865932e-06	7.348111916221e-05
0.3696              	-3.186660973594e-05	1.499197404783e+00	8.595366736832e-06	-2.756892636753e-05	3.616429310436e-05
0.3718              	-3.182905823532e-05	1.498650082861e+00	6.988092014075e-05	3.111401835057e-06	6.676951830570e-05
0.374               	-3.179307509037e-05	1.497571577228e+00	2.230820239253e-05	-2.063897389410e-05	4.294717628663e-05
0.3762              	-3.175166274161e-05	1.496862933137e+00	7.482939920157e-05	5.663036859180e-06	6.916636234239e-05
0.3784              	-3.171361221652e-05	1.495295298383e+00	1.509734929010e-05	-2.416493757147e-05	3.926228686157e-05
0.3806              	-3.166600596124e-05	1.494033908339e+00	3.364747086575e-05	-1.484227052836e-05	4.848974139411e-05
0.3828              	-3.162364115486e-05	1.492791045095e+00	4.295086012220e-05	-1.014821109376e-05	5.309907121595e-05
0.385               	-3.157526054114e-05	1.491922521602e+00	6.540527393445e-05	1.127376426086e-06	6.427789750836e-05
0.3872              	-3.152611155838e-05	1.490746464360e+00	6.022024990051e-05	-1.415986608128e-06	6.163623650864e-05
0.3894              	-3.147719554118e-05	1.489920632814e+00	7.302419783017e-05	5.034903373900e-06	6.798929445627e-05
0.3916              	-3.142246219865e-05	1.489053476138e+00	1.301819968596e-05	-2.491336235567e-05	3.793156204164e-05
0.3938              	-3.136862589971e-05	1.488326767746e+00	4.018043242314e-05	-1.127840968814e-05	5.145884211128e-05
0.396               	-3.131306701237e-05	1.487390796783e+00	6.596845962184e-05	1.671162798549e-06	6.429729682329e-05
0.3982              	-3.125449992913e-05	1.486691759189e+00	4.136069465801e-05	-1.057415260013e-05	5.193484725813e-05
0.4004              	-3.119369485507e-05	1.486019899489e+00	2.297951389739e-05	-1.970393790637e-05	4.268345180377e-05
0.4026              	-3.113169805885e-05	1.485275775427e+00	5.586052043391e-05	-3.201437841894e-06	5.906195827581e-05
0.4048              	-3.106967553979e-05	1.484576321372e+00	6.694279837542e-05	2.401723647922e-06	6.454107472749e-05
0.407               	-3.100685710920e-05	1.483938576902e+00	4.363303944970e-05	-9.190337384351e-06	5.282337683405e-05
0.4092              	-3.093965405848e-05	1.483084189576e+00	6.914126104420e-05	3.630976463621e-06	6.551028458058e-05
0.4114              	-3.087458037104e-05	1.482279972412e+00	6.106010779010e-05	-3.445264759941e-07	6.140463426609e-05
0.4136              	-3.080674364468e-05	1.481696370522e+00	6.359478307854e-05	9.906478945875e-07	6.260413518395e-05
0.4158              	-3.073667701622e-05	1.481074055700e+00	5.593917488092e-05	-2.767089575757e-06	5.870626445667e-05
0.418               	-3.066601180892e-05	1.480261817564e+00	6.527764516114e-05	1.972810771655e-06	6.330483438949e-05
0.4202              	-3.059593512926e-05	1.479596415327e+00	4.921962476080e-05	-5.986122748855e-06	5.520574750966e-05
0.4224              	-3.052433967429e-05	1.479029964755e+00	7.450053236869e-05	6.725926510057e-06	6.777460585863e-05
0.4246              	-3.045126629509e-05	1.478543678164e+00	6.231868278119e-05	7.080750955046e-07	6.161060768568e-05
0.4268              	-3.037481966322e-05	1.477823078433e+00	6.180876037599e-05	5.295605247723e-07	6.127919985122e-05
0.429               	-3.029940621007e-05	1.477121761412e+00	6.531408349456e-05	2.357635537212e-06	6.295644795735e-05
0.4312              	-3.022565058806e-05	1.476629066617e+00	6.462214970588e-05	2.085424264881e-06	6.253672544100e-05
0.4334              	-3.014850788502e-05	1.476169542421e+00	6.472280382866e-05	2.212894029308e-06	6.250990979935e-05
0.4356              	-3.006966143335e-05	1.475695176803e+00	6.944977281002e-05	4.655224971666e-06	6.479454783836e-05
0.4378              	-2.999195842147e-05	1.474938498484e+00	8.457635890002e-05	1.229622102854e-05	7.228013787147e-05
0.44                	-2.991227217782e-05	1.474367940887e+00	8.284295325151e-05	1.150920444794e-05	7.133374880357e-05
0.4422              	-2.983190537627e-05	1.473902220587e+00	6.429536927732e-05	2.315779262387e-06	6.197959001493e-05
0.4444              	-2.975359857412e-05	1.473485359220e+00	7.071936329033e-05	5.606083071047e-06	6.511328021929e-05
0.4466              	-2.967084127684e-05	1.473073969219e+00	8.376477130959e-05	1.221154437795e-05	7.155322693164e-05
0.4488              	-2.958692125241e-05	1.472366457065e+00	7.493971952554e-05	7.882938510362e-06	6.705678101518e-05
0.451               	-2.950509759983e-05	1.471938629836e+00	4.569088874711e-05	-6.659653226274e-06	5.235054197339e-05
0.4532              	-2.942472810026e-05	1.471585652363e+00	7.204613635631e-05	6.598340077891e-06	6.544779627842e-05
0.4554              	-2.934152888245e-05	1.471182297324e+00	8.787128743859e-05	1.459411483685e-05	7.327717260174e-05
0.4576              	-2.926067833937e-05	1.470811723310e+00	8.916915806044e-05	1.532390069085e-05	7.384525736958e-05
0.4598              	-2.917600059292e-05	1.470333883309e+00	8.042470278647e-05	1.103635080032e-05	6.938835198616e-05
0.462               	-2.909308760141e-05	1.469776912285e+00	1.015420275543e-04	2.167792617575e-05	7.986410137858e-05
0.4642              	-2.900869652062e-05	1.469335977366e+00	7.362479621331e-05	7.803701586036e-06	6.582109462727e-05
0.4664              	-2.892464101482e-05	1.468930458424e+00	7.889680978795e-05	1.052376387916e-05	6.837304590879e-05
0.4686              	-2.884070774403e-05	1.468594320574e+00	8.182959847924e-05	1.207409149559e-05	6.975550698365e-05
0.4708              	-2.876005736534e-05	1.468316383702e+00	8.373689940695e-05	1.310839233814e-05	7.062850706882e-05
0.473               	-2.867114377941e-05	1.467765508097e+00	8.446864048154e-05	1.356317646136e-05	7.090546402018e-05
0.4752              	-2.858599643652e-05	1.467414249331e+00	1.052371188899e-04	2.403256300842e-05	8.120455588146e-05
0.4774              	-2.850179671590e-05	1.467060446682e+00	8.872119603560e-05	1.585880130190e-05	7.286239473370e-05
0.4796              	-2.841760243585e-05	1.466741228172e+00	8.273686543242e-05	1.295083028036e-05	6.978603515206e-05
0.4818              	-2.833132658874e-05	1.466446840952e+00	9.828306231450e-05	2.081020456851e-05	7.747285774599e-05
0.484               	-2.824661026528e-05	1.466197963834e+00	8.898782732080e-05	1.624730339512e-05	7.274052392568e-05
0.4862              	-2.815995139828e-05	1.465696724416e+00	6.593895440135e-05	4.809525802395e-06	6.112942859896e-05
0.4884              	-2.807413440090e-05	1.465439155730e+00	8.588334606267e-05	1.486753863043e-05	7.101580743224e-05
0.4906              	-2.798951228670e-05	1.465132222093e+00	9.090537178352e-05	1.746317360506e-05	7.344219817846e-05
0.4928              	-2.790252792580e-05	1.464817311245e+00	9.186529167792e-05	1.803011791316e-05	7.383517376476e-05
0.495               	-2.781637303971e-05	1.464588717555e+00	1.016196704414e-04	2.299346218097e-05	7.862620826039e-05
0.4972              	-2.773263100026e-05	1.464426224037e+00	1.000807306725e-04	2.230773433600e-05	7.777299633653e-05
0.4994              	-2.764666965406e-05	1.464045212569e+00	1.046932149703e-04	2.469993783107e-05	7.999327713919e-05
0.5016              	-2.756143863503e-05	1.463821138953e+00	9.896083328912e-05	2.191897800953e-05	7.704185527959e-05
0.5038              	-2.747425046923e-05	1.463616313255e+00	1.060288569237e-04	2.554017799263e-05	8.048867893109e-05
0.506               	-2.738700973903e-05	1.463391678705e+00	1.064364334172e-04	2.583120696956e-05	8.060522644763e-05
0.5082              	-2.730152270910e-05	1.463183885586e+00	1.025524162175e-04	2.397468539967e-05	7.857773081786e-05
0.5104              	-2.721727753232e-05	1.463025605961e+00	1.078527249665e-04	2.670908495093e-05	8.114364001556e-05
0.5126              	-2.713148536566e-05	1.462811074048e+00	1.012788960125e-04	2.350796264059e-05	7.777093337191e-05
0.5148              	-2.704786100994e-05	1.462618696879e+00	1.113861396704e-04	2.864520882525e-05	8.274093084513e-05
0.517               	-2.696159441395e-05	1.462445838618e+00	1.061300108881e-04	2.610341103010e-05	8.002659985801e-05
0.5192              	-2.687593900271e-05	1.462275332997e+00	1.106764851782e-04	2.846230358637e-05	8.221418159179e-05
0.5214              	-2.678905163956e-05	1.462147907163e+00	9.982203274134e-05	2.312196473111e-05	7.670006801023e-05
0.5236              	-2.670588929576e-05	1.461977118474e+00	1.149052943287e-04	3.074675786856e-05	8.415853646009e-05
0.5258              	-2.662217989152e-05	1.461841862467e+00	1.158496539995e-04	3.130264710823e-05	8.454700689126e-05
0.528               	-2.653869587504e-05	1.461709751167e+00	1.158209711693e-04	3.137178970961e-05	8.444918145970e-05
0.5302              	-2.645584473381e-05	1.461597668329e+00	1.208312918331e-04	3.395980118276e-05	8.687149065038e-05
0.5324              	-2.637286145277e-05	1.461490384689e+00	1.150901668833e-04	3.117222198888e-05	8.391794489442e-05
0.5346              	-2.628984877006e-05	1.461404218617e+00	1.171071225683e-04	3.226371251407e-05	8.484341005419e-05
0.5368              	-2.620686200980e-05	1.461319987659e+00	1.215526295175e-04	3.456945274896e-05	8.698317676856e-05
0.539               	-2.612470746445e-05	1.461268735609e+00	1.169109566653e-04	3.233077086821e-05	8.458018579711e-05
0.5412              	-2.604195172102e-05	1.461245635935e+00	1.173628209331e-04	3.263945874553e-05	8.472336218758e-05
0.5434              	-2.596163072544e-05	1.461270102712e+00	1.231664736939e-04	3.562160612152e-05	8.754486757239e-05
0.5456              	-2.588158253674e-05	1.461498854259e+00	1.243104678882e-04	3.627365140736e-05	8.803681648084e-05