# Probe 0  1 0 0 
# Probe 1  10 2.5 0 
#             Probe                   0                   1
#              Time
             0.2508                    1.45845915693e-20 -8.93216020827e-19 -0.000121314967587                     0 -0 -4.22936256194e-10 
             0.4994                    1.8445532235e-20 -7.70573067881e-19 -0.000132665115477                     0 -0 -1.53459373068e-09 
             0.7502                    2.26136732317e-20 -5.81868087912e-19 -1.15523636867e-05                     0 -0 -2.71833380707e-09 
              1.001                    2.37927165165e-20 -3.3890976696e-19 0.000119343326448                     0 -0 -3.88716739127e-09 
             1.2496                    2.0644295526e-20 -7.90445612679e-20 1.14804620156e-05                     0 -0 -5.04188082444e-09 
             1.5004                    1.36143312935e-20 1.71026983096e-19 -0.000417655253486                     0 -0 -6.23207391525e-09 
              1.749                    4.34413059261e-21 3.86794237413e-19 -0.00113342649011                     0 -0 -7.35011180104e-09 
             1.9998                    -5.75749766393e-21 5.63912858579e-19 -0.00207610876145                     0 -0 -8.18774594126e-09 
             2.2506                    -1.54579153566e-20 6.96734067534e-19 -0.00316967860183                     0 -0 -8.51959123578e-09 
             2.4992                    -2.40340966203e-20 7.91918999081e-19 -0.00466366777693                     0 -0 -8.67423863608e-09 
               2.75                    -3.07219506621e-20 8.45731783221e-19 -0.004773430296                     0 -0 -1.46154167067e-08 
             3.0008                    -3.45938830874e-20 8.7010855194e-19 -0.00465958490375                     0 -0 -7.95921173271e-08 
             3.2494                    -3.68584926764e-20 8.81654031715e-19 -0.0055461381032                     0 -0 -5.25787184213e-07 
             3.5002                    -3.86914789297e-20 8.80788700193e-19 -0.00661648581481                     0 -0 -2.80624782382e-06 
              3.751                    -3.94183791398e-20 8.71487806047e-19 -0.00778096265617                     0 -0 -1.15176369506e-05 
             3.9996                    -3.98008968526e-20 8.56191431683e-19 -0.00667479988813                     0 -0 -3.62801921049e-05 
             4.2504                    -3.9652371709e-20 8.40466733876e-19 -0.00622332785872                     0 -0 -8.95481513811e-05 
              4.499                    -3.93100352271e-20 8.22793984385e-19 -0.00525498583219                     0 -0 -0.000167857862868 
             4.7498                    -3.88876873228e-20 8.04252954339e-19 -0.00415216893317                     0 -0 -0.00022963708526 
             5.0006                    -3.83561579628e-20 7.84685183438e-19 -0.00304269460145                     0 -0 -0.000190668639653 
             5.2492                    -3.78558670756e-20 7.64939230293e-19 -0.00184213635333                     0 -0 1.21787711847e-06 
                5.5                    -3.73247205307e-20 7.44650223463e-19 -0.000569343111811                     0 -0 0.00026708538326 
             5.7508                    -3.68224992177e-20 7.24206436772e-19 0.000598092082056                     0 -0 0.000371230549948 
             5.9994                    -3.63487248798e-20 7.03954820491e-19 0.00168392462589                     0 -0 0.000102636025664 
             6.2502                    -3.59040134901e-20 6.83632827653e-19 0.00267398260504                     0 -0 -0.000521643712379 
              6.501                    -3.54945916541e-20 6.63616417125e-19 0.00345098302229                     0 -0 -0.00124045090524 
             6.7496                    -3.51211783813e-20 6.44128582416e-19 0.00402518346178                     0 -0 -0.00177379412338 
             7.0004                    -3.4770757512e-20 6.248978109e-19 0.00438316366118                     0 -0 -0.00196859495021 
              7.249                    -3.4438436091e-20 6.06290986438e-19 0.00449602815303                     0 -0 -0.0016608540136 
             7.4998                    -3.41101570516e-20 5.87997391981e-19 0.00435424904391                     0 -0 -0.000664935186521 
             7.7506                    -3.3772517901e-20 5.7019623002e-19 0.00398234562632                     0 -0 0.000876538031073 
             7.9992                    -3.34198801589e-20 5.53043726963e-19 0.00339529884929                     0 -0 0.00222815581999 
               8.25                    -3.3034612114e-20 5.36246251715e-19 0.00260373605014                     0 -0 0.0025558977798 
             8.5008                    -3.26084820844e-20 5.1996430612e-19 0.00166083343936                     0 -0 0.00169674356978 
             8.7494                    -3.21386547306e-20 5.04335532474e-19 0.000605475621099                     0 -0 0.000443936655546 
             9.0002                    -3.16117308404e-20 4.89091287294e-19 -0.000529901756739                     0 -0 -0.000294443124913 
              9.251                    -3.10281461597e-20 4.74363503845e-19 -0.00168209993648                     0 -0 -0.000270264220233 
             9.4996                    -3.03924083555e-20 4.60270980122e-19 -0.00279258893361                     0 -0 6.49165767809e-05 
             9.7504                    -2.96968172046e-20 4.4655619544e-19 -0.00382581124701                     0 -0 0.000254592262018 
              9.999                    -2.8960948929e-20 4.33453434885e-19 -0.0047241759541                     0 -0 0.000236221992191 
            10.2498                    -2.81809857983e-20 4.2072482261e-19 -0.00545926846318                     0 -0 0.000194456547145 
            10.5006                    -2.73743348571e-20 4.08476879255e-19 -0.00597959142536                     0 -0 0.000247853658825 
            10.7492                    -2.65628079441e-20 3.96793817098e-19 -0.00625719220512                     0 -0 0.000383071694962 
                 11                    -2.57486230888e-20 3.85456652592e-19 -0.00628654249494                     0 -0 0.000574817139044 
            11.2508                    -2.49620746833e-20 3.7456192603e-19 -0.00605946150959                     0 -0 0.000823200036884 
            11.4994                    -2.42270766398e-20 3.64192055846e-19 -0.00558032664293                     0 -0 0.0010874624657 
            11.7502                    -2.35482764701e-20 3.54152786145e-19 -0.00484864284002                     0 -0 0.0012409010865 
             12.001                    -2.29516376926e-20 3.44523025373e-19 -0.00389682417554                     0 -0 0.00110222553184 
            12.2496                    -2.24579932594e-20 3.35369052756e-19 -0.0027832079693                     0 -0 0.000575565389965 
            12.5004                    -2.20730099714e-20 3.26519113474e-19 -0.00153200694313                     0 -0 -0.000257003655882 
             12.749                    -2.18129613417e-20 3.18117524034e-19 -0.000206090344018                     0 -0 -0.00106613711754 
            12.9998                    -2.16799353596e-20 3.10003178666e-19 0.00115954462179                     0 -0 -0.00141082840685 
            13.2506                    -2.16781613534e-20 3.02239658944e-19 0.00249081051286                     0 -0 -0.000876377235043 
            13.4992                    -2.1800333597e-20 2.94881088676e-19 0.0037218384479                     0 -0 0.000685401626975 
              13.75                    -2.20406808897e-20 2.87786414348e-19 0.0048218433459                     0 -0 0.00315434113102 
            14.0008                    -2.23835537589e-20 2.81011066055e-19 0.00572687779779                     0 -0 0.00611232067453 
            14.2494                    -2.28055704912e-20 2.74599054054e-19 0.0063869487859                     0 -0 0.00897366001778 
            14.5002                    -2.3288441163e-20 2.6842662505e-19 0.0067809081517                     0 -0 0.0111817495587 
             14.751                    -2.38022139976e-20 2.62541239024e-19 0.00688044087909                     0 -0 0.0122018713445 
            14.9996                    -2.4310895559e-20 2.56981395617e-19 0.00667796724098                     0 -0 0.0118853090887 
            15.2504                    -2.47914118186e-20 2.51639474101e-19 0.00617013256921                     0 -0 0.0106162915261 
             15.499                    -2.5203225594e-20 2.46599858597e-19 0.00537898587744                     0 -0 0.0092352157882 
            15.7498                    -2.55223099502e-20 2.41763992408e-19 0.00431794982416                     0 -0 0.0085104831837 
            16.0006                    -2.57151524529e-20 2.37167947538e-19 0.00303318624778                     0 -0 0.00870239781231 
            16.2492                    -2.57564222813e-20 2.32839377758e-19 0.00158886364009                     0 -0 0.00939972243511 
               16.5                    -2.56267400519e-20 2.28692327908e-19 1.78637013713e-05                     0 -0 0.00998965717655 
            16.7508                    -2.53119282436e-20 2.24756557761e-19 -0.00160371065535                     0 -0 0.010154249245 
            16.9994                    -2.48110517733e-20 2.21054966421e-19 -0.00319561276308                     0 -0 0.0100531676544 
            17.2502                    -2.41183255314e-20 2.17513016124e-19 -0.00471958791869                     0 -0 0.0100088020243 
             17.501                    -2.32485048186e-20 2.14155332382e-19 -0.00609606044192                     0 -0 0.0101548661473 
            17.7496                    -2.22318259264e-20 2.11000156584e-19 -0.00725331452013                     0 -0 0.0103779241591 
            18.0004                    -2.10791727097e-20 2.07983223003e-19 -0.00815543881155                     0 -0 0.0105378468945 
             18.249                    -1.98467487774e-20 2.05149601895e-19 -0.00873946215748                     0 -0 0.010617106494 
            18.4998                    -1.85560645627e-20 2.02441741678e-19 -0.00897960085136                     0 -0 0.0106910290043 
            18.7506                    -1.72668547889e-20 1.99877671069e-19 -0.00884775626707                     0 -0 0.0108009029027 
            18.9992                    -1.60418579698e-20 1.97470854374e-19 -0.00834360928043                     0 -0 0.010921864409 
              19.25                    -1.49129555658e-20 1.95172276065e-19 -0.0074663634943                     0 -0 0.0110233013591 
            19.5008                    -1.39453430565e-20 1.9299769177e-19 -0.00624307301467                     0 -0 0.0111043770101 
            19.7494                    -1.31931473536e-20 1.9095818451e-19 -0.00472584731277                     0 -0 0.0111818236354 
            20.0002                    -1.26869872414e-20 1.89011261455e-19 -0.0029390755557                     0 -0 0.0112629035486 
             20.251                    -1.24708835616e-20 1.87169427043e-19 -0.000960952235955                     0 -0 0.0113410902595 
            20.4996                    -1.25688696574e-20 1.85441720233e-19 0.00111315628981                     0 -0 0.0114126370069 
            20.7504                    -1.29957391126e-20 1.8379178207e-19 0.00323752277301                     0 -0 0.0114817174013 
             20.999                    -1.37451272648e-20 1.822424463e-19 0.00528929378008                     0 -0 0.0115495593262 
            21.2498                    -1.48160558401e-20 1.80760488164e-19 0.00721695261891                     0 -0 0.0116167688702 
            21.5006                    -1.61749677199e-20 1.79354404027e-19 0.00891564959222                     0 -0 0.0116817812764 
            21.7492                    -1.77622799447e-20 1.78030915207e-19 0.010293691456                     0 -0 0.0117442466135 
                 22                    -1.95505455757e-20 1.76762252558e-19 0.0113040742016                     0 -0 0.0118056460428 
            22.2508                    -2.14570297097e-20 1.75557080938e-19 0.011873483306                     0 -0 0.0118654313087 
            22.4994                    -2.33842580936e-20 1.74423113813e-19 0.0119600690217                     0 -0 0.0119231272069 
            22.7502                    -2.52804309059e-20 1.73339233391e-19 0.0115405036295                     0 -0 0.0119798783763 
             23.001                    -2.70377140575e-20 1.7231606405e-19 0.0106067980443                     0 -0 0.0120352053184 
            23.2496                    -2.85537022084e-20 1.71362096663e-19 0.00918880859419                     0 -0 0.0120886573232 
            23.5004                    -2.97681458818e-20 1.70461236045e-19 0.00729950166362                     0 -0 0.0121412279127 
             23.749                    -3.05827863604e-20 1.69629877164e-19 0.00503005096824                     0 -0 0.0121919456684 
            23.9998                    -3.09452449276e-20 1.68853281776e-19 0.00241767710923                     0 -0 0.0122415411148 
            24.2506                    -3.07947072515e-20 1.68137350407e-19 -0.000421276278068                     0 -0 0.0122893805286 
            24.4992                    -3.01071907463e-20 1.67483754749e-19 -0.00334804696127                     0 -0 0.0123348894565 
              24.75                    -2.88606219184e-20 1.66874985756e-19 -0.00629718915899                     0 -0 0.0123786450515 
            25.0008                    -2.70721689231e-20 1.6631031283e-19 -0.00911910096505                     0 -0 0.0124199931382 
            25.2494                    -2.48056324773e-20 1.65786499899e-19 -0.0116637045186                     0 -0 0.0124584009168 
            25.5002                    -2.20850254461e-20 1.65287332767e-19 -0.0138499456572                     0 -0 0.0124943828085 
             25.751                    -1.90183228264e-20 1.64811247216e-19 -0.0155341198649                     0 -0 0.0125274718169 
            25.9996                    -1.57476880401e-20 1.64357311186e-19 -0.0166040466962                     0 -0 0.012557384666 
            26.2504                    -1.23441757239e-20 1.63915354451e-19 -0.0169944818591                     0 -0 0.0125847036082 
             26.499                    -9.01100821304e-21 1.63492903837e-19 -0.0166401562865                     0 -0 0.0126090686171 
            26.7498                    -5.8430249089e-21 1.63084425593e-19 -0.0155039086267                     0 -0 0.0126310988801 
            27.0006                    -3.02587256895e-21 1.62698401772e-19 -0.0135873854995                     0 -0 0.0126508225144 
            27.2492                    -7.331902516e-22 1.62343114981e-19 -0.0109517665986                     0 -0 0.0126684452984 
               27.5                    9.33930534416e-22 1.62017632727e-19 -0.00761846489063                     0 -0 0.0126847720774 
            27.7508                    1.82624147003e-21 1.6172654587e-19 -0.00371091812411                     0 -0 0.0126998706291 
            27.9994                    1.846395617e-21 1.61469599688e-19 0.000592903305149                     0 -0 0.01271406435 
            28.2502                    9.24655412317e-22 1.61234853979e-19 0.00520065884491                     0 -0 0.0127289667047 
             28.501                    -9.72691461447e-22 1.61013656745e-19 0.00988244336911                     0 -0 0.0127442027634 
            28.7496                    -3.80772747357e-21 1.60792354256e-19 0.0143953817888                     0 -0 0.012760488652 
            29.0004                    -7.57358640781e-21 1.60551503e-19 0.0186091274864                     0 -0 0.0127793070011 
             29.249                    -1.21043723704e-20 1.6028002389e-19 0.022237147832                     0 -0 0.0128003968364 
            29.4998                    -1.73328336121e-20 1.59960672469e-19 0.0251343220999                     0 -0 0.0128249677241 
            29.7506                    -2.30313147525e-20 1.59589408873e-19 0.0270729266221                     0 -0 0.0128535306023 
            29.9992                    -2.89209331608e-20 1.59171477373e-19 0.0278855481633                     0 -0 0.0128856534879 
              30.25                    -3.48476487159e-20 1.58710756206e-19 0.0274631246072                     0 -0 0.0129219712956 
            30.5008                    -4.04830746111e-20 1.58231357509e-19 0.0257203992087                     0 -0 0.0129619292653 
            30.7494                    -4.5492984736e-20 1.57767791281e-19 0.0226701370063                     0 -0 0.0130041036268 
            31.0002                    -4.96824674187e-20 1.57344278668e-19 0.018299616                     0 -0 0.0130480896583 
             31.251                    -5.27319238165e-20 1.56995619389e-19 0.0127293143404                     0 -0 0.0130921166163 
            31.4996                    -5.43795018668e-20 1.56750381318e-19 0.00618601556894                     0 -0 0.0131339358021 
            31.7504                    -5.4459333566e-20 1.56611877346e-19 -0.0012124723009                     0 -0 0.0131723767097 
             31.999                    -5.2827782486e-20 1.56576662411e-19 -0.00905556906064                     0 -0 0.0132050104156 
            32.2498                    -4.93713631918e-20 1.56624957766e-19 -0.0171518521119                     0 -0 0.0132305489163 
            32.5006                    -4.41038904104e-20 1.56717413515e-19 -0.0250525993101                     0 -0 0.0132456261431 
            32.7492                    -3.71795045268e-20 1.56803874402e-19 -0.0322821890222                     0 -0 0.013243049229 
                 33                    -2.8664299384e-20 1.56830946251e-19 -0.0385398045774                     0 -0 0.0132176574199 
            33.2508                    -1.88974054497e-20 1.56750304864e-19 -0.04333188479                     0 -0 0.0132010976817 
            33.4994                    -8.35985146707e-21 1.56534148965e-19 -0.0462476028827                     0 -0 0.0132600778702 
            33.7502                    2.66016927709e-21 1.56174853095e-19 -0.0470094468672                     0 -0 0.0133586665877 
             34.001                    1.35234122621e-20 1.55703180848e-19 -0.0453384030558                     0 -0 0.0132988696998 
            34.2496                    2.35331672518e-20 1.55185207488e-19 -0.0411457379006                     0 -0 0.0130591993136 
            34.5004                    3.22415174811e-20 1.54708229699e-19 -0.0343593733305                     0 -0 0.0129593008224 
             34.749                    3.88422027929e-20 1.54373490636e-19 -0.025232394147                     0 -0 0.0131451372596 
            34.9998                    4.28567507053e-20 1.542609554e-19 -0.0138653520564                     0 -0 0.0132862061094 
            35.2506                    4.36718501968e-20 1.54423556734e-19 -0.000738653857054                     0 -0 0.0131627533852 
            35.4992                    4.09017982993e-20 1.54852431948e-19 0.0134664785167                     0 -0 0.0130325132879 
              35.75                    3.42196153899e-20 1.5547627377e-19 0.0283119081012                     0 -0 0.0130943034625 
            36.0008                    2.35897431695e-20 1.5615332297e-19 0.0428421225507                     0 -0 0.0131692572405 
            36.2494                    9.3339885504e-21 1.56682088988e-19 0.0559911695482                     0 -0 0.0130998706584 
            36.5002                    -8.29029697426e-21 1.56877834986e-19 0.0669614129887                     0 -0 0.0130067761779 
             36.751                    -2.83647499252e-20 1.5658234291e-19 0.074591776229                     0 -0 0.0129988392863 
            36.9996                    -4.95799083402e-20 1.55761084574e-19 0.0779470302772                     0 -0 0.0129945447442 
            37.2504                    -7.09660944846e-20 1.54499004235e-19 0.0763967852754                     0 -0 0.0129505935312 
             37.499                    -9.06609527387e-20 1.53064773369e-19 0.0696149132652                     0 -0 0.0129402181827 
            37.7498                    -1.07468538647e-19 1.51812356805e-19 0.0574807351587                     0 -0 0.0129707303613 
            38.0006                    -1.19684730424e-19 1.51189385176e-19 0.0404219743716                     0 -0 0.0129936614996 
            38.2492                    -1.25941505101e-19 1.51563551996e-19 0.0193133531507                     0 -0 0.0130253280418 
               38.5                    -1.25265396704e-19 1.53148833961e-19 -0.00528494004515                     0 -0 0.0130802981616 
            38.7508                    -1.16856577622e-19 1.55886889337e-19 -0.0319740613899                     0 -0 0.0131278113792 
            38.9994                    -1.00666820612e-19 1.59369873481e-19 -0.0589412858156                     0 -0 0.013126926796 
            39.2502                    -7.67838874985e-20 1.63024224234e-19 -0.0846802111643                     0 -0 0.0128363381869 
             39.501                    -4.64306451078e-20 1.66057955446e-19 -0.106554733611                     0 -0 0.0108398498374 
            39.7496                    -1.17859253502e-20 1.67815767272e-19 -0.121902170167                     0 -0 -0.00033955632342 
            40.0004                    2.52606886303e-20 1.68040847713e-19 -0.128720522798                     0 -0 -0.0525767351269 
             40.249                    6.11519806936e-20 1.66954914566e-19 -0.125377456962                     0 -0 -0.215532729521 
            40.4998                    9.34294289303e-20 1.65276449682e-19 -0.111329842654                     0 -0 -0.486509242393 
            40.7506                    1.1881807814e-19 1.64098756164e-19 -0.087093326344                     0 -0 -0.624983543378 
            40.9992                    1.34598311385e-19 1.64547265241e-19 -0.054310096041                     0 -0 -0.516198704276 
              41.25                    1.38947877816e-19 1.67403032609e-19 -0.0140179561706                     0 -0 -0.31973830708 
            41.5008                    1.30162607353e-19 1.72750554992e-19 0.0317594352957                     0 -0 -0.161666989353 
            41.7494                    1.07798128153e-19 1.79704783559e-19 0.0803969498986                     0 -0 -0.106767338068 
            42.0002                    7.18453323484e-20 1.86753328874e-19 0.129551282362                     0 -0 -0.109798340843 
             42.251                    2.42983270721e-20 1.91821530644e-19 0.174053933335                     0 -0 -0.118991971429 
            42.4996                    -3.08634004309e-20 1.9326328371e-19 0.207750905819                     0 -0 -0.101901200333 
            42.7504                    -8.98500317824e-20 1.90548320151e-19 0.225574371555                     0 -0 -0.0495794300281 
             42.999                    -1.46264922555e-19 1.84610257162e-19 0.223489431885                     0 -0 0.00498848113182 
            43.2498                    -1.95837669698e-19 1.77507672108e-19 0.200566990491                     0 -0 0.0260427310706 
            43.5006                    -2.335591572e-19 1.72087683232e-19 0.158470149091                     0 -0 0.0169802077596 
            43.7492                    -2.55819015138e-19 1.70974687078e-19 0.100942716975                     0 -0 0.00897731739874 
                 44                    -2.60495793651e-19 1.75770450447e-19 0.0300462428675                     0 -0 0.0120068815311 
            44.2508                    -2.45558830093e-19 1.86459543973e-19 -0.0516972671739                     0 -0 0.0138573010599 
            44.4994                    -2.10535629274e-19 2.00809027155e-19 -0.14137745368                     0 -0 0.0121782646709 
            44.7502                    -1.55465704613e-19 2.1519873402e-19 -0.235581235046                     0 -0 0.0124564319833 
             45.001                    -8.36792461078e-20 2.25003480219e-19 -0.323205156143                     0 -0 0.0131325692693 
            45.2496                    -1.86180349752e-21 2.27039698611e-19 -0.389417991723                     0 -0 0.0127106081819 
            45.5004                    8.34896903243e-20 2.21047822348e-19 -0.42217372691                     0 -0 0.0112907956065 
             45.749                    1.62576143067e-19 2.09976657581e-19 -0.413970491998                     0 -0 0.000770696789484 
            45.9998                    2.29459087217e-19 1.98567266791e-19 -0.365477311942                     0 -0 -0.0455908239415 
            46.2506                    2.77829651687e-19 1.9220178426e-19 -0.282904684086                     0 -0 -0.15535366459 
            46.4992                    3.03392496844e-19 1.94818041966e-19 -0.174978551498                     0 -0 -0.250002606945 
              46.75                    3.03341131738e-19 2.08041019522e-19 -0.0450157373691                     0 -0 -0.206820597283 
            47.0008                    2.74337665997e-19 2.29729876514e-19 0.10665850075                     0 -0 -0.120752099597 
            47.2494                    2.15200348983e-19 2.53353066524e-19 0.279229882014                     0 -0 -0.0918976822749 
            47.5002                    1.26652502021e-19 2.70328785052e-19 0.464965163955                     0 -0 -0.0779472084938 
             47.751                    1.658419859e-20 2.72860979473e-19 0.633720770867                     0 -0 -0.0573989947402 
            47.9996                    -1.01590014166e-19 2.59492487987e-19 0.74880536832                     0 -0 -0.037776555063 
            48.2504                    -2.16590260497e-19 2.35128923486e-19 0.787886382442                     0 -0 -0.0184646644431 
             48.499                    -3.15491635395e-19 2.09165988529e-19 0.746241681016                     0 -0 0.00027503106069 
            48.7498                    -3.92635579501e-19 1.90376932393e-19 0.635000950446                     0 -0 0.0129686028841 
            49.0006                    -4.42672806084e-19 1.86229874e-19 0.467791632914                     0 -0 0.0156695914102 
            49.2492                    -4.6210909255e-19 1.99268519157e-19 0.268042004156                     0 -0 0.0128979586725 
               49.5                    -4.47972677629e-19 2.29450260565e-19 0.0344818528654                     0 -0 0.011306244452 
            49.7508                    -3.96165585643e-19 2.69377744628e-19 -0.248418413839                     0 -0 0.0117669224856 
            49.9994                    -3.05907084584e-19 3.04887496936e-19 -0.57756517549                     0 -0 0.0118327039246 
            50.2502                    -1.81010395633e-19 3.21406354849e-19 -0.914488883326                     0 -0 0.0114345622644 
             50.501                    -3.62586005346e-20 3.11744104841e-19 -1.17934594455                     0 -0 0.0114922990357 
            50.7496                    1.09683551639e-19 2.82221125078e-19 -1.31311188261                     0 -0 0.011612584592 
            51.0004                    2.4489880063e-19 2.45839586137e-19 -1.30552104283                     0 -0 0.0106475348099 
             51.249                    3.57164491549e-19 2.16885609339e-19 -1.17707627054                     0 -0 0.003691457278 
            51.4998                    4.41795634124e-19 2.04977187885e-19 -0.962407327247                     0 -0 -0.0257312680436 
            51.7506                    4.93004930558e-19 2.16944895141e-19 -0.695523387023                     0 -0 -0.0914767787217 
            51.9992                    5.05173986067e-19 2.50680841933e-19 -0.33927766192                     0 -0 -0.141587771299 
              52.25                    4.70675811252e-19 2.99981688466e-19 0.0663458390003                     0 -0 -0.104019217122 
            52.5008                    3.83719592337e-19 3.45194066539e-19 0.567117884162                     0 -0 -0.0458168388287 
            52.7494                    2.4915246346e-19 3.61944019151e-19 1.11088385436                     0 -0 -0.0398748076602 
            53.0002                    8.266326981e-20 3.40289974656e-19 1.57418716142                     0 -0 -0.0457164669768 
             53.251                    -9.15118280634e-20 2.9093858052e-19 1.84492376799                     0 -0 -0.033212765153 
            53.4996                    -2.5408660235e-19 2.35033390415e-19 1.90196488048                     0 -0 -0.0152189221078 
            53.7504                    -3.96503259682e-19 1.89395822553e-19 1.78195192594                     0 -0 -0.00168412256004 
             53.999                    -5.08707272196e-19 1.66674143958e-19 1.53267728812                     0 -0 0.00713487303358 
            54.2498                    -5.86724610384e-19 1.72658814006e-19 1.17988556369                     0 -0 0.0121189784511 
            54.5006                    -6.24762457409e-19 2.10042332861e-19 0.811182398993                     0 -0 0.0130655443051 
            54.7492                    -6.17334135059e-19 2.73260489263e-19 0.277316225523                     0 -0 0.0117964521834 
                 55                    -5.52415059548e-19 3.41703643076e-19 -0.377291622102                     0 -0 0.0109582906958 
            55.2508                    -4.28809439585e-19 3.83852142848e-19 -1.13532197922                     0 -0 0.0109478966931 